# vtk DataFile Version 4.0
vtk output
ASCII
DATASET POLYDATA
POINTS 458 float
5.26686 160.646 1013.69 5.2654 160.641 1013.69 5.26105 160.627 1013.68 
5.2538 160.605 1013.68 5.24369 160.573 1013.67 5.23072 160.532 1013.65 
5.21492 160.484 1013.64 5.1963 160.427 1013.62 5.17487 160.361 1013.59 
5.15065 160.288 1013.57 5.12366 160.208 1013.54 5.09391 160.12 1013.51 
5.06142 160.024 1013.48 5.02621 159.922 1013.45 4.98829 159.812 1013.41 
4.94767 159.696 1013.37 4.90438 159.573 1013.33 4.85844 159.444 1013.29 
4.80984 159.309 1013.25 4.75862 159.168 1013.2 4.70479 159.021 1013.15 
4.64836 158.869 1013.1 4.58936 158.711 1013.05 4.52779 158.548 1013 
4.46367 158.38 1012.95 4.39702 158.208 1012.89 4.32786 158.03 1012.84 
4.2562 157.849 1012.78 4.18205 157.663 1012.72 4.10544 157.473 1012.66 
4.02638 157.279 1012.6 3.94489 157.081 1012.54 3.86097 156.88 1012.48 
3.77466 156.676 1012.41 3.68596 156.469 1012.35 3.59488 156.259 1012.29 
3.50146 156.046 1012.22 3.4057 155.831 1012.16 3.30761 155.613 1012.09 
3.20722 155.394 1012.03 3.10455 155.172 1011.96 2.99959 154.949 1011.9 
2.89239 154.724 1011.83 2.78294 154.498 1011.76 2.67126 154.271 1011.7 
2.55738 154.043 1011.63 2.44131 153.814 1011.57 2.32305 153.584 1011.51 
2.20264 153.354 1011.44 2.08009 153.124 1011.38 1.9554 152.894 1011.32 
1.82861 152.664 1011.25 1.69972 152.434 1011.19 1.56875 152.206 1011.13 
1.43571 151.977 1011.07 1.30063 151.75 1011.02 1.16352 151.524 1010.96 
1.02439 151.3 1010.9 0.88326 151.077 1010.85 0.74015 150.855 1010.79 
0.595073 150.636 1010.74 0.448045 150.419 1010.69 0.299082 150.204 1010.64 
0.148201 149.991 1010.6 -0.00458191 149.781 1010.55 -0.159251 149.574 1010.51 
-0.315791 149.371 1010.47 -0.474185 149.17 1010.43 -0.634416 148.973 1010.39 
-0.79647 148.78 1010.35 -0.960329 148.59 1010.32 -1.12598 148.405 1010.29 
-1.2934 148.224 1010.26 -1.46258 148.047 1010.23 -1.6335 147.875 1010.21 
-1.80614 147.707 1010.19 -1.9805 147.545 1010.17 -2.15655 147.388 1010.16 
-2.33427 147.236 1010.14 -2.51365 147.09 1010.13 -2.69468 146.949 1010.13 
-2.87734 146.815 1010.12 -3.06161 146.687 1010.12 -3.24747 146.565 1010.13 
-3.43492 146.449 1010.13 -3.62393 146.341 1010.14 -3.81449 146.239 1010.15 
-4.00658 146.144 1010.17 -4.20018 146.057 1010.19 -4.39528 145.977 1010.21 
-4.59187 145.905 1010.24 -4.78992 145.841 1010.27 -4.98934 145.785 1010.31 
-5.18972 145.735 1010.34 -5.39065 145.693 1010.38 -5.59166 145.656 1010.41 
-5.79234 145.625 1010.44 -5.99223 145.597 1010.45 -6.1909 145.574 1010.46 
-6.3879 145.553 1010.46 -6.58281 145.534 1010.44 -6.77519 145.517 1010.4 
-6.96458 145.501 1010.34 -7.15554 145.48 1010.29 -7.34871 145.455 1010.24 
-7.54162 145.428 1010.19 -7.73438 145.402 1010.14 -7.92707 145.374 1010.09 
-8.11979 145.348 1010.04 -8.31263 145.322 1009.99 -8.50569 145.298 1009.94 
-8.69905 145.276 1009.89 -8.89283 145.257 1009.84 -9.08711 145.241 1009.8 
-9.28198 145.229 1009.75 -9.47754 145.221 1009.71 -9.67388 145.217 1009.68 
-9.8711 145.22 1009.64 -10.0691 145.229 1009.61 -10.2676 145.246 1009.59 
-10.4666 145.268 1009.56 -10.666 145.292 1009.54 -10.8657 145.318 1009.53 
-11.0656 145.344 1009.52 -11.2655 145.366 1009.51 -11.4656 145.384 1009.51 
-11.6655 145.395 1009.51 -11.8653 145.397 1009.52 -12.0648 145.389 1009.53 
-12.2644 145.379 1009.54 -12.4647 145.384 1009.53 -12.6651 145.401 1009.51 
-12.8653 145.427 1009.49 -13.0649 145.46 1009.47 -13.2634 145.499 1009.45 
-13.4605 145.54 1009.44 -13.6557 145.582 1009.45 -13.8486 145.622 1009.48 
-14.0407 145.659 1009.53 -14.2345 145.693 1009.57 -14.4285 145.729 1009.61 
-14.621 145.768 1009.65 -14.8101 145.814 1009.69 -14.9937 145.871 1009.75 
-15.1698 145.944 1009.81 -15.3476 146.019 1009.86 -15.5275 146.094 1009.91 
-15.7095 146.169 1009.95 -15.8929 146.244 1009.98 -16.0757 146.318 1010.01 
-16.2567 146.392 1010.05 -16.4364 146.466 1010.1 -16.6155 146.543 1010.15 
-16.7937 146.622 1010.2 -16.9708 146.704 1010.24 -17.1467 146.788 1010.29 
-17.3211 146.876 1010.33 -17.4939 146.967 1010.37 -17.6652 147.061 1010.42 
-17.835 147.157 1010.46 -18.0036 147.256 1010.51 -18.171 147.356 1010.56 
-18.3374 147.457 1010.6 -18.5029 147.56 1010.65 -18.6687 147.662 1010.7 
-18.8382 147.762 1010.73 -19.0101 147.861 1010.77 -19.1795 147.96 1010.81 
-19.3413 148.063 1010.87 -19.4982 148.17 1010.93 -19.6564 148.279 1010.99 
-19.8073 148.395 1011.05 -19.9707 148.511 1011.06 -20.1317 148.631 1011.06 
-20.2882 148.756 1011.07 -20.4406 148.885 1011.08 -20.5897 149.017 1011.1 
-20.7361 149.153 1011.11 -20.8805 149.291 1011.13 -21.0233 149.43 1011.15 
-21.1653 149.571 1011.18 -21.307 149.711 1011.2 -21.4492 149.852 1011.22 
-21.5924 149.992 1011.24 -21.7372 150.13 1011.25 -21.8834 150.267 1011.27 
-22.0296 150.403 1011.29 -22.1742 150.54 1011.31 -22.3155 150.678 1011.34 
-22.4524 150.819 1011.37 -22.5861 150.963 1011.41 -22.7181 151.107 1011.45 
-22.8503 151.252 1011.49 -22.9844 151.395 1011.54 -23.1222 151.537 1011.57 
-23.2637 151.677 1011.6 -23.4021 151.819 1011.63 -23.5293 151.966 1011.67 
-23.6433 152.119 1011.73 -23.7494 152.274 1011.8 -23.8538 152.429 1011.88 
-23.9621 152.58 1011.95 -24.0764 152.726 1012.03 -24.1958 152.867 1012.11 
-24.3194 153.004 1012.19 -24.4462 153.138 1012.27 -24.5755 153.27 1012.35 
-24.7062 153.4 1012.42 -24.8374 153.529 1012.5 -24.9682 153.657 1012.59 
-25.0976 153.786 1012.67 -25.2249 153.916 1012.75 -25.349 154.048 1012.84 
-25.4689 154.182 1012.92 -25.584 154.32 1013.01 -25.6945 154.46 1013.1 
-25.8019 154.602 1013.2 -25.9073 154.745 1013.29 -26.0123 154.887 1013.38 
-26.1181 155.027 1013.48 -26.226 155.166 1013.58 -26.3372 155.3 1013.67 
-26.4514 155.432 1013.77 -26.568 155.561 1013.87 -26.6864 155.689 1013.97 
-26.8061 155.816 1014.06 -26.9265 155.942 1014.16 -27.047 156.068 1014.26 
-27.167 156.196 1014.36 -27.2859 156.325 1014.45 -27.4031 156.456 1014.55 
-27.5181 156.59 1014.65 -27.6302 156.728 1014.74 -27.739 156.87 1014.84 
-27.8542 156.992 1014.94 -27.9701 157.081 1015.08 -28.0757 157.16 1015.23 
-28.1773 157.235 1015.39 -28.281 157.312 1015.54 -28.3894 157.395 1015.69 
-28.5006 157.482 1015.84 -28.6124 157.572 1015.98 -28.7226 157.662 1016.12 
-28.8288 157.753 1016.26 -28.9288 157.842 1016.41 -29.0205 157.927 1016.57 
-29.1015 158.008 1016.73 -29.1719 158.084 1016.9 -29.2366 158.154 1017.07 
-29.3012 158.219 1017.25 -29.3712 158.28 1017.43 -29.4519 158.336 1017.61 
-29.5445 158.388 1017.78 -29.6452 158.438 1017.95 -29.7498 158.485 1018.11 
-29.8541 158.533 1018.28 -29.9539 158.58 1018.45 -30.0451 158.629 1018.62 
-30.1235 158.681 1018.79 -30.185 158.735 1018.97 -30.2324 158.792 1019.16 
-30.281 158.847 1019.35 -30.3373 158.897 1019.53 -30.4004 158.944 1019.72 
-30.4688 158.989 1019.9 -30.5413 159.032 1020.08 -30.6166 159.075 1020.26 
-30.6934 159.118 1020.44 -30.7699 159.163 1020.62 -30.8442 159.211 1020.8 
-30.916 159.262 1020.98 -30.9889 159.314 1021.16 -31.0673 159.364 1021.34 
-31.1554 159.41 1021.51 -31.2503 159.453 1021.68 -31.327 159.503 1021.86 
-31.3807 159.561 1022.05 -31.4349 159.614 1022.23 -31.4904 159.666 1022.42 
-31.5473 159.72 1022.6 -31.605 159.782 1022.78 -31.6549 159.852 1022.96 
-31.6873 159.929 1023.14 -31.7258 160 1023.33 -31.7756 160.065 1023.51 
-31.8356 160.125 1023.69 -31.9047 160.178 1023.87 -31.9805 160.228 1024.06 
-32.0535 160.279 1024.24 -32.1114 160.338 1024.42 -32.1454 160.408 1024.6 
-32.1778 160.473 1024.79 -32.213 160.54 1024.98 -32.2497 160.613 1025.16 
-32.2862 160.697 1025.34 -32.321 160.794 1025.51 -32.3537 160.909 1025.67 
-32.3989 161.037 1025.82 -32.4814 161.166 1025.95 -32.5384 161.292 1026.1 
-32.5825 161.42 1026.25 -32.6338 161.549 1026.39 -32.6911 161.679 1026.53 
-32.753 161.811 1026.67 -32.818 161.945 1026.8 -32.8849 162.08 1026.94 
-32.9522 162.216 1027.07 -33.0186 162.354 1027.2 -33.0827 162.493 1027.32 
-33.1434 162.639 1027.45 -33.2045 162.786 1027.57 -33.2683 162.928 1027.7 
-33.3332 163.072 1027.82 -33.3973 163.222 1027.93 -33.4505 163.376 1028.05 
-33.4916 163.53 1028.17 -33.5257 163.682 1028.3 -33.5579 163.834 1028.43 
-33.5933 163.985 1028.55 -33.6369 164.136 1028.68 -33.6938 164.286 1028.8 
-33.7677 164.436 1028.91 -33.8485 164.591 1029.01 -33.9184 164.757 1029.1 
-33.9632 164.939 1029.16 -33.995 165.13 1029.22 -34.0323 165.319 1029.28 
-34.0784 165.504 1029.34 -34.1323 165.686 1029.4 -34.1928 165.867 1029.47 
-34.2589 166.046 1029.53 -34.3296 166.225 1029.58 -34.4037 166.405 1029.63 
-34.4788 166.586 1029.68 -34.5482 166.77 1029.72 -34.6042 166.957 1029.76 
-34.6464 167.146 1029.81 -34.6862 167.337 1029.86 -34.7313 167.528 1029.9 
-34.7823 167.718 1029.94 -34.8388 167.906 1029.98 -34.9005 168.093 1030.02 
-34.9671 168.278 1030.07 -35.0383 168.46 1030.11 -35.1137 168.639 1030.16 
-35.1934 168.815 1030.21 -35.2859 168.987 1030.26 -35.3871 169.157 1030.3 
-35.4846 169.33 1030.34 -35.566 169.511 1030.36 -35.6203 169.702 1030.38 
-35.6676 169.897 1030.39 -35.7224 170.089 1030.4 -35.7833 170.279 1030.41 
-35.8485 170.468 1030.42 -35.9166 170.656 1030.43 -35.986 170.843 1030.45 
-36.055 171.031 1030.46 -36.122 171.22 1030.48 -36.1856 171.41 1030.49 
-36.2461 171.601 1030.51 -36.3064 171.792 1030.52 -36.3695 171.981 1030.54 
-36.4382 172.168 1030.56 -36.5156 172.35 1030.59 -36.6038 172.528 1030.62 
-36.6957 172.703 1030.66 -36.7789 172.881 1030.7 -36.8416 173.066 1030.74 
-36.8916 173.258 1030.76 -36.9376 173.454 1030.76 -36.9819 173.651 1030.75 
-37.0254 173.847 1030.75 -37.0647 174.043 1030.73 -37.0963 174.238 1030.71 
-37.1218 174.433 1030.67 -37.1505 174.628 1030.63 -37.1895 174.821 1030.62 
-37.2387 175.014 1030.62 -37.2972 175.206 1030.64 -37.3637 175.397 1030.66 
-37.4371 175.585 1030.68 -37.5164 175.771 1030.7 -37.6003 175.955 1030.7 
-37.6858 176.137 1030.68 -37.7471 176.325 1030.66 -37.7737 176.524 1030.66 
-37.7999 176.723 1030.67 -37.8522 176.915 1030.69 -37.9054 177.106 1030.72 
-37.9521 177.299 1030.74 -37.9948 177.494 1030.75 -38.0363 177.691 1030.76 
-38.0792 177.889 1030.77 -38.1251 178.088 1030.78 -38.1741 178.287 1030.78 
-38.2267 178.485 1030.78 -38.2829 178.681 1030.77 -38.3432 178.875 1030.75 
-38.4077 179.065 1030.73 -38.4766 179.25 1030.7 -38.5503 179.431 1030.65 
-38.629 179.604 1030.59 -38.7129 179.771 1030.51 -38.7997 179.933 1030.43 
-38.8795 180.106 1030.38 -38.94 180.296 1030.35 -38.9771 180.494 1030.32 
-39.0045 180.693 1030.3 -39.0373 180.89 1030.27 -39.0909 181.079 1030.26 
-39.1772 181.256 1030.25 -39.2859 181.426 1030.25 -39.3971 181.595 1030.25 
-39.5 181.768 1030.24 -39.5951 181.944 1030.23 -39.6838 182.123 1030.21 
-39.7674 182.303 1030.18 -39.8473 182.484 1030.15 -39.9253 182.665 1030.11 
-40.006 182.845 1030.08 -40.0942 183.023 1030.07 -40.192 183.199 1030.09 
-40.3007 183.368 1030.1 -40.4169 183.532 1030.1 -40.5303 183.696 1030.09 
-40.6325 183.862 1030.05 -40.7242 184.033 1030 -40.8083 184.206 1029.95 
-40.8877 184.381 1029.89 -40.9652 184.558 1029.82 -41.0436 184.734 1029.77 
-41.1232 184.913 1029.73 -41.1799 185.097 1029.67 -41.2192 185.281 1029.6 
-41.2568 185.467 1029.53 -41.3073 185.655 1029.49 -41.3662 185.845 1029.47 
-41.4195 186.034 1029.44 -41.463 186.224 1029.38 -41.4949 186.415 1029.3 
-41.5272 186.595 1029.23 -41.5745 186.752 1029.22 -41.6389 186.884 1029.29 
-41.7176 186.993 1029.41 -41.8078 187.08 1029.58 -41.9067 187.149 1029.79 
-42.0116 187.201 1030.03 -42.1197 187.238 1030.29 -42.2282 187.263 1030.57 
-42.3343 187.277 1030.85 -42.4352 187.282 1031.12 -42.5283 187.281 1031.37 
-42.6106 187.275 1031.6 -42.6795 187.267 1031.8 -42.7322 187.259 1031.95 
-42.7658 187.253 1032.05 -42.7776 187.25 1032.08 
LINES 1 459
458 0 1 2 3 4 5 6 7 8 9 10 11 12 13 14 15 16 17 18 19 20 21 22 23 24 25 26 27 28 29 30 31 32 33 34 35 36 37 38 39 40 41 42 43 44 45 46 47 48 49 50 51 52 53 54 55 56 57 58 59 60 61 62 63 64 65 66 67 68 69 70 71 72 73 74 75 76 77 78 79 80 81 82 83 84 85 86 87 88 89 90 91 92 93 94 95 96 97 98 99 100 101 102 103 104 105 106 107 108 109 110 111 112 113 114 115 116 117 118 119 120 121 122 123 124 125 126 127 128 129 130 131 132 133 134 135 136 137 138 139 140 141 142 143 144 145 146 147 148 149 150 151 152 153 154 155 156 157 158 159 160 161 162 163 164 165 166 167 168 169 170 171 172 173 174 175 176 177 178 179 180 181 182 183 184 185 186 187 188 189 190 191 192 193 194 195 196 197 198 199 200 201 202 203 204 205 206 207 208 209 210 211 212 213 214 215 216 217 218 219 220 221 222 223 224 225 226 227 228 229 230 231 232 233 234 235 236 237 238 239 240 241 242 243 244 245 246 247 248 249 250 251 252 253 254 255 256 257 258 259 260 261 262 263 264 265 266 267 268 269 270 271 272 273 274 275 276 277 278 279 280 281 282 283 284 285 286 287 288 289 290 291 292 293 294 295 296 297 298 299 300 301 302 303 304 305 306 307 308 309 310 311 312 313 314 315 316 317 318 319 320 321 322 323 324 325 326 327 328 329 330 331 332 333 334 335 336 337 338 339 340 341 342 343 344 345 346 347 348 349 350 351 352 353 354 355 356 357 358 359 360 361 362 363 364 365 366 367 368 369 370 371 372 373 374 375 376 377 378 379 380 381 382 383 384 385 386 387 388 389 390 391 392 393 394 395 396 397 398 399 400 401 402 403 404 405 406 407 408 409 410 411 412 413 414 415 416 417 418 419 420 421 422 423 424 425 426 427 428 429 430 431 432 433 434 435 436 437 438 439 440 441 442 443 444 445 446 447 448 449 450 451 452 453 454 455 456 457 

POINT_DATA 458
TEXTURE_COORDINATES TCoords 2 float
0 0 0.00218818 0 0.00437637 0 0.00656455 0 0.00875274 
0 0.0109409 0 0.0131291 0 0.0153173 0 0.0175055 0 
0.0196937 0 0.0218818 0 0.02407 0 0.0262582 0 0.0284464 
0 0.0306346 0 0.0328228 0 0.0350109 0 0.0371991 0 
0.0393873 0 0.0415755 0 0.0437637 0 0.0459519 0 0.04814 
0 0.0503282 0 0.0525164 0 0.0547046 0 0.0568928 0 
0.059081 0 0.0612691 0 0.0634573 0 0.0656455 0 0.0678337 
0 0.0700219 0 0.0722101 0 0.0743982 0 0.0765864 0 
0.0787746 0 0.0809628 0 0.083151 0 0.0853392 0 0.0875273 
0 0.0897155 0 0.0919037 0 0.0940919 0 0.0962801 0 
0.0984683 0 0.100656 0 0.102845 0 0.105033 0 0.107221 
0 0.109409 0 0.111597 0 0.113786 0 0.115974 0 
0.118162 0 0.12035 0 0.122538 0 0.124726 0 0.126915 
0 0.129103 0 0.131291 0 0.133479 0 0.135667 0 
0.137856 0 0.140044 0 0.142232 0 0.14442 0 0.146608 
0 0.148796 0 0.150985 0 0.153173 0 0.155361 0 
0.157549 0 0.159737 0 0.161926 0 0.164114 0 0.166302 
0 0.16849 0 0.170678 0 0.172867 0 0.175055 0 
0.177243 0 0.179431 0 0.181619 0 0.183807 0 0.185996 
0 0.188184 0 0.190372 0 0.19256 0 0.194748 0 
0.196937 0 0.199125 0 0.201313 0 0.203501 0 0.205689 
0 0.207877 0 0.210066 0 0.212254 0 0.214442 0 
0.21663 0 0.218818 0 0.221007 0 0.223195 0 0.225383 
0 0.227571 0 0.229759 0 0.231947 0 0.234136 0 
0.236324 0 0.238512 0 0.2407 0 0.242888 0 0.245077 
0 0.247265 0 0.249453 0 0.251641 0 0.253829 0 
0.256018 0 0.258206 0 0.260394 0 0.262582 0 0.26477 
0 0.266958 0 0.269147 0 0.271335 0 0.273523 0 
0.275711 0 0.277899 0 0.280088 0 0.282276 0 0.284464 
0 0.286652 0 0.28884 0 0.291028 0 0.293217 0 
0.295405 0 0.297593 0 0.299781 0 0.301969 0 0.304158 
0 0.306346 0 0.308534 0 0.310722 0 0.31291 0 
0.315098 0 0.317287 0 0.319475 0 0.321663 0 0.323851 
0 0.326039 0 0.328228 0 0.330416 0 0.332604 0 
0.334792 0 0.33698 0 0.339168 0 0.341357 0 0.343545 
0 0.345733 0 0.347921 0 0.350109 0 0.352298 0 
0.354486 0 0.356674 0 0.358862 0 0.36105 0 0.363239 
0 0.365427 0 0.367615 0 0.369803 0 0.371991 0 
0.374179 0 0.376368 0 0.378556 0 0.380744 0 0.382932 
0 0.38512 0 0.387309 0 0.389497 0 0.391685 0 
0.393873 0 0.396061 0 0.398249 0 0.400438 0 0.402626 
0 0.404814 0 0.407002 0 0.40919 0 0.411379 0 
0.413567 0 0.415755 0 0.417943 0 0.420131 0 0.422319 
0 0.424508 0 0.426696 0 0.428884 0 0.431072 0 
0.43326 0 0.435449 0 0.437637 0 0.439825 0 0.442013 
0 0.444201 0 0.446389 0 0.448578 0 0.450766 0 
0.452954 0 0.455142 0 0.45733 0 0.459519 0 0.461707 
0 0.463895 0 0.466083 0 0.468271 0 0.47046 0 
0.472648 0 0.474836 0 0.477024 0 0.479212 0 0.4814 
0 0.483589 0 0.485777 0 0.487965 0 0.490153 0 
0.492341 0 0.49453 0 0.496718 0 0.498906 0 0.501094 
0 0.503282 0 0.50547 0 0.507659 0 0.509847 0 
0.512035 0 0.514223 0 0.516411 0 0.5186 0 0.520788 
0 0.522976 0 0.525164 0 0.527352 0 0.52954 0 
0.531729 0 0.533917 0 0.536105 0 0.538293 0 0.540481 
0 0.54267 0 0.544858 0 0.547046 0 0.549234 0 
0.551422 0 0.553611 0 0.555799 0 0.557987 0 0.560175 
0 0.562363 0 0.564551 0 0.56674 0 0.568928 0 
0.571116 0 0.573304 0 0.575492 0 0.577681 0 0.579869 
0 0.582057 0 0.584245 0 0.586433 0 0.588621 0 
0.59081 0 0.592998 0 0.595186 0 0.597374 0 0.599562 
0 0.601751 0 0.603939 0 0.606127 0 0.608315 0 
0.610503 0 0.612691 0 0.61488 0 0.617068 0 0.619256 
0 0.621444 0 0.623632 0 0.625821 0 0.628009 0 
0.630197 0 0.632385 0 0.634573 0 0.636761 0 0.63895 
0 0.641138 0 0.643326 0 0.645514 0 0.647702 0 
0.649891 0 0.652079 0 0.654267 0 0.656455 0 0.658643 
0 0.660832 0 0.66302 0 0.665208 0 0.667396 0 
0.669584 0 0.671772 0 0.673961 0 0.676149 0 0.678337 
0 0.680525 0 0.682713 0 0.684902 0 0.68709 0 
0.689278 0 0.691466 0 0.693654 0 0.695842 0 0.698031 
0 0.700219 0 0.702407 0 0.704595 0 0.706783 0 
0.708972 0 0.71116 0 0.713348 0 0.715536 0 0.717724 
0 0.719912 0 0.722101 0 0.724289 0 0.726477 0 
0.728665 0 0.730853 0 0.733042 0 0.73523 0 0.737418 
0 0.739606 0 0.741794 0 0.743982 0 0.746171 0 
0.748359 0 0.750547 0 0.752735 0 0.754923 0 0.757112 
0 0.7593 0 0.761488 0 0.763676 0 0.765864 0 
0.768053 0 0.770241 0 0.772429 0 0.774617 0 0.776805 
0 0.778993 0 0.781182 0 0.78337 0 0.785558 0 
0.787746 0 0.789934 0 0.792123 0 0.794311 0 0.796499 
0 0.798687 0 0.800875 0 0.803063 0 0.805252 0 
0.80744 0 0.809628 0 0.811816 0 0.814004 0 0.816193 
0 0.818381 0 0.820569 0 0.822757 0 0.824945 0 
0.827133 0 0.829322 0 0.83151 0 0.833698 0 0.835886 
0 0.838074 0 0.840263 0 0.842451 0 0.844639 0 
0.846827 0 0.849015 0 0.851204 0 0.853392 0 0.85558 
0 0.857768 0 0.859956 0 0.862144 0 0.864333 0 
0.866521 0 0.868709 0 0.870897 0 0.873085 0 0.875274 
0 0.877462 0 0.87965 0 0.881838 0 0.884026 0 
0.886214 0 0.888403 0 0.890591 0 0.892779 0 0.894967 
0 0.897155 0 0.899344 0 0.901532 0 0.90372 0 
0.905908 0 0.908096 0 0.910284 0 0.912473 0 0.914661 
0 0.916849 0 0.919037 0 0.921225 0 0.923414 0 
0.925602 0 0.92779 0 0.929978 0 0.932166 0 0.934354 
0 0.936543 0 0.938731 0 0.940919 0 0.943107 0 
0.945295 0 0.947484 0 0.949672 0 0.95186 0 0.954048 
0 0.956236 0 0.958425 0 0.960613 0 0.962801 0 
0.964989 0 0.967177 0 0.969365 0 0.971554 0 0.973742 
0 0.97593 0 0.978118 0 0.980306 0 0.982495 0 
0.984683 0 0.986871 0 0.989059 0 0.991247 0 0.993435 
0 0.995624 0 0.997812 0 1 0 
FIELD FieldData 1
MaximumInscribedSphereRadius 1 458 double
18.2072 18.2072 18.2072 18.2072 18.2072 18.2072 18.2072 18.2072 18.2072 
18.2072 18.2072 18.2072 18.2072 18.2072 18.2072 18.2072 18.2072 18.2072 
18.2072 18.2072 18.2072 18.2072 18.2072 18.2072 18.2072 18.2072 18.2072 
18.2072 18.2072 18.2072 18.2072 18.2072 18.2072 18.2072 18.2072 18.2072 
18.2072 18.2072 18.2072 18.2072 18.2072 18.2072 18.2072 18.2072 18.2072 
18.2072 18.2072 18.2072 18.2072 18.2072 18.2072 18.2072 18.2072 18.2072 
18.2072 18.2072 18.2072 18.2072 18.2072 18.2072 18.2072 18.2072 18.2072 
18.2072 18.2072 18.2072 18.2072 18.2072 18.2072 18.2072 18.2072 18.2072 
18.2072 18.2072 18.2072 18.2072 18.2072 18.2072 18.2072 18.2072 18.2072 
18.2072 18.2072 18.2072 18.2072 18.2072 18.2072 18.2072 18.2072 18.2072 
18.2072 18.2086 18.2236 18.2385 18.2535 18.2685 18.2834 18.2984 18.3134 
18.3283 18.3433 18.3583 18.3731 18.3899 18.4137 18.4384 18.4631 18.4877 
18.5124 18.5371 18.5617 18.5864 18.6111 18.6357 18.6604 18.6851 18.7097 
18.7305 18.7454 18.7604 18.7754 18.7904 18.8054 18.8204 18.8353 18.8503 
18.8653 18.8803 18.8953 18.8679 18.8334 18.7989 18.7644 18.7299 18.6954 
18.6609 18.6264 18.5876 18.54 18.499 18.4579 18.4169 18.3759 18.3294 
18.2603 18.1916 18.1237 18.0587 17.9955 17.9322 17.8718 17.8112 17.7501 
17.689 17.6279 17.5669 17.505 17.4395 17.374 17.3084 17.2429 17.1774 
17.1119 17.0471 16.9852 16.9261 16.8685 16.8108 16.7532 16.6886 16.6218 
16.5491 16.4722 16.3945 16.3168 16.2392 16.1615 16.0838 16.0062 15.9285 
15.8508 15.7732 15.6955 15.6178 15.545 15.482 15.419 15.356 15.293 
15.2246 15.1557 15.0868 15.0179 14.949 14.8802 14.8288 14.7774 14.7173 
14.6456 14.5738 14.502 14.4304 14.3589 14.2874 14.2159 14.1444 14.0728 
14.0013 13.9298 13.8583 13.7868 13.7153 13.6438 13.5723 13.5085 13.4498 
13.3911 13.3323 13.2736 13.2149 13.1561 13.1168 13.0782 13.0397 13.0011 
12.9626 12.924 12.8855 12.847 12.8084 12.7699 12.7313 12.6928 12.6534 
12.6079 12.5262 12.4445 12.3627 12.2848 12.2128 12.1407 12.0687 11.9966 
11.9246 11.8526 11.7805 11.7042 11.6131 11.522 11.4309 11.3398 11.2557 
11.1811 11.1065 11.0319 10.9573 10.8826 10.808 10.7334 10.6583 10.5817 
10.5069 10.4334 10.3598 10.2862 10.2127 10.1391 10.0695 10.0023 9.93666 
9.88062 9.82457 9.76853 9.71365 9.67047 9.6262 9.58121 9.53974 9.49827 
9.45681 9.41409 9.37017 9.32818 9.3013 9.27443 9.24755 9.22067 9.19948 
9.17896 9.15845 9.13923 9.12219 9.10515 9.0881 9.07106 9.05402 9.00909 
8.94726 8.87873 8.79846 8.72646 8.65446 8.58246 8.51046 8.43846 8.36646 
8.29446 8.22246 8.15061 8.08335 8.01711 7.9505 7.88389 7.81587 7.75804 
7.70021 7.64238 7.58455 7.52671 7.46888 7.41105 7.34854 7.28413 7.21973 
7.13124 7.03826 6.94905 6.85999 6.77094 6.68188 6.59283 6.50377 6.41556 
6.33619 6.25681 6.18035 6.11043 6.04694 5.99794 5.94894 5.89995 5.85095 
5.80195 5.75295 5.70396 5.65835 5.61285 5.56735 5.52185 5.47635 5.43273 
5.39874 5.36635 5.33396 5.30157 5.26919 5.2368 5.20441 5.17202 5.14767 
5.13401 5.12034 5.10668 5.09302 5.07936 5.07021 5.06309 5.05597 5.04927 
5.03952 5.02976 5.01975 5.00814 4.99653 4.97636 4.94144 4.90393 4.85259 
4.80125 4.74991 4.69858 4.64724 4.5959 4.54456 4.50298 4.46449 4.4235 
4.38251 4.32945 4.2865 4.24402 4.20155 4.15907 4.13467 4.13071 4.12675 
4.1228 4.11884 4.11488 4.11092 4.10697 4.10301 4.09905 4.0962 4.10543 
4.10264 4.06224 4.01593 3.96963 3.92332 3.87701 3.80917 3.73668 3.67165 
3.61799 3.56434 3.51068 3.45702 3.40336 3.37622 3.35253 3.32292 3.29304 
3.26375 3.23568 3.20784 3.18631 3.16477 3.14324 3.12171 3.10018 3.08868 
3.10543 3.12124 3.13567 3.1501 3.15803 3.16055 3.16558 3.17061 3.17406 
3.17729 3.17772 3.17772 3.17772 3.17772 3.17772 3.17772 3.17772 3.17772 
3.17772 3.17772 3.17772 3.17772 3.17772 3.17772 3.17772 3.17772 
