# vtk DataFile Version 4.0
vtk output
ASCII
DATASET POLYDATA
POINTS 414 float
5.26686 160.646 1013.69 5.26122 160.641 1013.69 5.24448 160.627 1013.68 
5.21695 160.603 1013.68 5.17892 160.57 1013.67 5.13068 160.528 1013.65 
5.07254 160.478 1013.64 5.00478 160.419 1013.62 4.92771 160.352 1013.6 
4.84161 160.276 1013.57 4.74679 160.193 1013.55 4.64353 160.102 1013.52 
4.53214 160.003 1013.49 4.41291 159.897 1013.45 4.28613 159.784 1013.42 
4.15211 159.665 1013.38 4.01113 159.538 1013.34 3.8635 159.405 1013.3 
3.7095 159.266 1013.26 3.54943 159.12 1013.21 3.3836 158.969 1013.17 
3.21229 158.812 1013.12 3.0358 158.649 1013.07 2.85442 158.482 1013.02 
2.66846 158.309 1012.97 2.4782 158.131 1012.91 2.28394 157.949 1012.86 
2.08598 157.762 1012.8 1.88462 157.571 1012.74 1.68014 157.376 1012.69 
1.47285 157.177 1012.63 1.26304 156.975 1012.57 1.051 156.769 1012.51 
0.837037 156.56 1012.44 0.621438 156.347 1012.38 0.404502 156.132 1012.32 
0.186523 155.915 1012.26 -0.0322024 155.695 1012.19 -0.251379 155.472 1012.13 
-0.470712 155.248 1012.06 -0.689904 155.022 1012 -0.908661 154.794 1011.94 
-1.12669 154.565 1011.87 -1.34369 154.334 1011.81 -1.55936 154.103 1011.74 
-1.77342 153.871 1011.68 -1.98557 153.638 1011.62 -2.19551 153.405 1011.55 
-2.40294 153.171 1011.49 -2.60757 152.938 1011.43 -2.80911 152.705 1011.36 
-3.00726 152.472 1011.3 -3.20172 152.24 1011.24 -3.3922 152.009 1011.18 
-3.5784 151.779 1011.13 -3.76003 151.55 1011.07 -3.93678 151.322 1011.01 
-4.10838 151.096 1010.96 -4.27451 150.872 1010.9 -4.43489 150.65 1010.85 
-4.58922 150.43 1010.8 -4.7372 150.213 1010.75 -4.87854 149.998 1010.7 
-5.01294 149.787 1010.65 -5.14011 149.578 1010.6 -5.25975 149.372 1010.56 
-5.37157 149.17 1010.52 -5.47526 148.972 1010.48 -5.57054 148.778 1010.44 
-5.65711 148.587 1010.4 -5.73467 148.401 1010.37 -5.80293 148.22 1010.34 
-5.8616 148.043 1010.31 -5.91037 147.871 1010.28 -5.94895 147.704 1010.25 
-5.97705 147.542 1010.23 -5.99436 147.386 1010.21 -6.0006 147.236 1010.2 
-5.99547 147.091 1010.18 -5.97868 146.953 1010.17 -5.94992 146.821 1010.16 
-5.90891 146.695 1010.15 -5.85534 146.577 1010.15 -5.78892 146.465 1010.15 
-5.70936 146.36 1010.15 -5.61636 146.263 1010.16 -5.50962 146.173 1010.17 
-5.38885 146.091 1010.18 -5.25376 146.016 1010.2 -5.10404 145.95 1010.22 
-4.93941 145.893 1010.24 -4.75956 145.843 1010.27 -4.56666 145.801 1010.3 
-4.37054 145.76 1010.32 -4.17597 145.715 1010.34 -3.98208 145.669 1010.35 
-3.78796 145.624 1010.37 -3.59341 145.578 1010.38 -3.39861 145.533 1010.39 
-3.20375 145.489 1010.41 -3.009 145.444 1010.42 -2.81454 145.4 1010.44 
-2.62056 145.356 1010.47 -2.42724 145.312 1010.5 -2.23497 145.268 1010.53 
-2.0449 145.224 1010.58 -1.85334 145.182 1010.62 -1.65988 145.145 1010.66 
-1.46521 145.11 1010.69 -1.27003 145.078 1010.73 -1.07505 145.047 1010.76 
-0.880949 145.018 1010.8 -0.688437 144.989 1010.85 -0.498208 144.96 1010.91 
-0.310959 144.93 1010.97 -0.126511 144.899 1011.04 0.0590777 144.865 1011.11 
0.247882 144.827 1011.16 0.439438 144.786 1011.19 0.633205 144.743 1011.22 
0.828638 144.699 1011.24 1.0252 144.654 1011.25 1.22233 144.61 1011.27 
1.41951 144.567 1011.28 1.6162 144.525 1011.29 1.81233 144.486 1011.31 
2.0082 144.451 1011.34 2.20408 144.418 1011.36 2.4003 144.39 1011.39 
2.59713 144.367 1011.41 2.79478 144.348 1011.44 2.99298 144.331 1011.46 
3.19136 144.313 1011.48 3.38957 144.293 1011.5 3.58727 144.266 1011.52 
3.78449 144.234 1011.53 3.98136 144.198 1011.53 4.17805 144.16 1011.54 
4.3747 144.12 1011.54 4.57148 144.082 1011.54 4.76854 144.045 1011.53 
4.966 144.011 1011.53 5.16388 143.982 1011.53 5.36178 143.953 1011.54 
5.55922 143.923 1011.55 5.75627 143.891 1011.57 5.95306 143.857 1011.58 
6.14968 143.822 1011.6 6.34624 143.786 1011.61 6.54285 143.751 1011.63 
6.73949 143.716 1011.64 6.93602 143.68 1011.65 7.13228 143.643 1011.67 
7.32814 143.605 1011.68 7.52367 143.566 1011.7 7.719 143.526 1011.72 
7.91429 143.486 1011.74 8.10969 143.447 1011.76 8.30534 143.41 1011.78 
8.50139 143.375 1011.8 8.69794 143.342 1011.82 8.8946 143.311 1011.84 
9.09093 143.28 1011.87 9.28667 143.246 1011.91 9.48153 143.208 1011.94 
9.67525 143.164 1011.96 9.86756 143.11 1011.98 10.0582 143.045 1011.99 
10.2471 142.969 1011.98 10.4446 142.951 1011.97 10.6454 142.947 1011.99 
10.8456 142.933 1011.99 11.0441 142.911 1011.99 11.2401 142.884 1011.97 
11.4347 142.853 1011.93 11.6296 142.824 1011.89 11.8265 142.798 1011.87 
12.0257 142.784 1011.87 12.2231 142.792 1011.89 12.4189 142.818 1011.92 
12.6132 142.854 1011.97 12.8066 142.892 1012.01 12.9995 142.925 1012.06 
13.1932 142.95 1012.11 13.3897 142.974 1012.14 13.5864 143.001 1012.16 
13.7812 143.036 1012.19 13.9753 143.076 1012.22 14.1691 143.117 1012.25 
14.3625 143.154 1012.29 14.5555 143.188 1012.33 14.7483 143.218 1012.37 
14.9412 143.244 1012.42 15.1343 143.266 1012.47 15.3278 143.286 1012.52 
15.5219 143.302 1012.57 15.7168 143.316 1012.61 15.9123 143.328 1012.65 
16.1083 143.338 1012.69 16.3046 143.349 1012.73 16.501 143.36 1012.77 
16.6973 143.374 1012.8 16.8933 143.39 1012.84 17.0888 143.41 1012.88 
17.2823 143.431 1012.93 17.4726 143.449 1012.99 17.6631 143.466 1013.05 
17.8541 143.483 1013.1 18.0446 143.497 1013.16 18.2337 143.505 1013.23 
18.4219 143.509 1013.3 18.6122 143.512 1013.37 18.8078 143.52 1013.4 
19.0066 143.525 1013.43 19.2069 143.532 1013.45 19.4078 143.541 1013.47 
19.6083 143.552 1013.49 19.8072 143.563 1013.52 20.0034 143.573 1013.55 
20.1958 143.581 1013.6 20.3835 143.585 1013.67 20.5705 143.59 1013.74 
20.7611 143.599 1013.8 20.955 143.613 1013.84 21.1515 143.629 1013.88 
21.3499 143.646 1013.91 21.5497 143.663 1013.93 21.7501 143.677 1013.95 
21.9507 143.689 1013.97 22.1508 143.695 1013.99 22.3497 143.695 1014.02 
22.5472 143.693 1014.06 22.7433 143.695 1014.09 22.9379 143.704 1014.14 
23.1315 143.72 1014.19 23.3242 143.736 1014.24 23.5165 143.75 1014.3 
23.7087 143.758 1014.35 23.901 143.755 1014.41 24.0927 143.744 1014.47 
24.2822 143.729 1014.53 24.4728 143.719 1014.59 24.6659 143.712 1014.64 
24.8603 143.704 1014.69 25.057 143.693 1014.72 25.2562 143.686 1014.74 
25.4541 143.693 1014.77 25.6496 143.712 1014.81 25.8441 143.729 1014.86 
26.0367 143.738 1014.91 26.2276 143.745 1014.97 26.4186 143.75 1015.03 
26.6094 143.755 1015.09 26.7987 143.755 1015.16 26.9878 143.757 1015.22 
27.1773 143.76 1015.29 27.3673 143.763 1015.35 27.5583 143.766 1015.41 
27.7505 143.768 1015.47 27.9439 143.769 1015.52 28.1379 143.768 1015.57 
28.3318 143.766 1015.62 28.5249 143.772 1015.67 28.7156 143.781 1015.73 
28.9028 143.782 1015.8 29.0892 143.784 1015.88 29.2758 143.787 1015.95 
29.4633 143.789 1016.02 29.6526 143.79 1016.08 29.8441 143.788 1016.14 
30.0354 143.794 1016.2 30.2236 143.815 1016.27 30.4097 143.843 1016.34 
30.5947 143.864 1016.41 30.7793 143.875 1016.49 30.9626 143.889 1016.57 
31.1439 143.909 1016.65 31.3227 143.935 1016.73 31.5013 143.96 1016.82 
31.6828 143.98 1016.9 31.8631 144.016 1016.98 32.0425 144.042 1017.07 
32.2187 144.075 1017.16 32.3962 144.113 1017.24 32.5772 144.152 1017.32 
32.7591 144.195 1017.39 32.9385 144.243 1017.47 33.1126 144.3 1017.55 
33.2828 144.369 1017.63 33.457 144.442 1017.69 33.6345 144.508 1017.76 
33.7999 144.594 1017.83 33.9531 144.698 1017.9 34.0959 144.816 1017.98 
34.2303 144.942 1018.07 34.3581 145.071 1018.16 34.4813 145.199 1018.26 
34.604 145.323 1018.36 34.7332 145.442 1018.46 34.8742 145.557 1018.54 
35.021 145.674 1018.61 35.1622 145.799 1018.68 35.2893 145.936 1018.75 
35.405 146.082 1018.82 35.5175 146.219 1018.92 35.6311 146.36 1019 
35.7344 146.51 1019.08 35.8315 146.664 1019.17 35.9259 146.82 1019.25 
36.0191 146.975 1019.34 36.1067 147.121 1019.44 36.1931 147.257 1019.56 
36.2896 147.391 1019.68 36.3984 147.526 1019.78 36.4988 147.664 1019.88 
36.5811 147.802 1020 36.6662 147.937 1020.12 36.7568 148.077 1020.23 
36.8497 148.228 1020.32 36.9432 148.385 1020.41 37.0385 148.538 1020.49 
37.1465 148.681 1020.58 37.2613 148.82 1020.67 37.3711 148.963 1020.76 
37.469 149.114 1020.85 37.5572 149.271 1020.93 37.6388 149.433 1021.02 
37.7177 149.594 1021.11 37.7987 149.742 1021.22 37.8847 149.873 1021.34 
37.9773 149.994 1021.47 38.0776 150.112 1021.6 38.1828 150.229 1021.73 
38.2869 150.346 1021.85 38.3837 150.462 1021.98 38.4687 150.577 1022.12 
38.548 150.693 1022.26 38.6317 150.808 1022.41 38.7297 150.923 1022.54 
38.8413 151.034 1022.66 38.9558 151.134 1022.79 39.0662 151.221 1022.93 
39.1731 151.298 1023.08 39.2781 151.372 1023.24 39.3825 151.449 1023.39 
39.4876 151.534 1023.54 39.5929 151.628 1023.68 39.6857 151.722 1023.83 
39.7832 151.812 1023.98 39.8876 151.903 1024.13 39.9936 151.992 1024.27 
40.0956 152.078 1024.42 40.1909 152.158 1024.58 40.281 152.259 1024.72 
40.3585 152.353 1024.88 40.4317 152.445 1025.05 40.5089 152.539 1025.21 
40.5981 152.642 1025.35 40.7088 152.737 1025.49 40.8329 152.804 1025.63 
40.9463 152.871 1025.78 41.0514 152.944 1025.94 41.1618 153.014 1026.09 
41.2889 153.078 1026.23 41.4284 153.136 1026.36 41.5737 153.189 1026.49 
41.7276 153.224 1026.61 41.896 153.263 1026.71 42.0784 153.268 1026.79 
42.2458 153.292 1026.9 42.4057 153.339 1027.01 42.5705 153.401 1027.12 
42.7407 153.464 1027.21 42.9107 153.51 1027.31 43.0746 153.525 1027.41 
43.2345 153.516 1027.53 43.4081 153.543 1027.63 43.5915 153.583 1027.7 
43.778 153.605 1027.78 43.965 153.605 1027.85 44.1545 153.615 1027.91 
44.3419 153.648 1027.97 44.5203 153.684 1028.06 44.6954 153.719 1028.15 
44.8708 153.75 1028.24 45.0489 153.776 1028.33 45.2305 153.796 1028.41 
45.4118 153.814 1028.49 45.5896 153.829 1028.59 45.7683 153.83 1028.68 
45.9546 153.803 1028.74 46.1508 153.765 1028.79 46.3499 153.73 1028.84 
46.5417 153.69 1028.9 46.7159 153.638 1028.99 46.8623 153.566 1029.1 
46.9994 153.494 1029.22 47.1627 153.454 1029.32 47.3456 153.44 1029.4 
47.5413 153.444 1029.47 47.7424 153.462 1029.54 47.9422 153.485 1029.6 
48.1331 153.508 1029.68 48.3062 153.52 1029.77 48.4579 153.522 1029.92 
48.6019 153.538 1030.1 48.7373 153.566 1030.32 48.8618 153.602 1030.55 
48.9732 153.642 1030.78 49.0694 153.684 1031.01 49.148 153.723 1031.21 
49.2069 153.755 1031.37 49.2439 153.777 1031.47 49.2567 153.785 1031.51 

LINES 1 415
414 0 1 2 3 4 5 6 7 8 9 10 11 12 13 14 15 16 17 18 19 20 21 22 23 24 25 26 27 28 29 30 31 32 33 34 35 36 37 38 39 40 41 42 43 44 45 46 47 48 49 50 51 52 53 54 55 56 57 58 59 60 61 62 63 64 65 66 67 68 69 70 71 72 73 74 75 76 77 78 79 80 81 82 83 84 85 86 87 88 89 90 91 92 93 94 95 96 97 98 99 100 101 102 103 104 105 106 107 108 109 110 111 112 113 114 115 116 117 118 119 120 121 122 123 124 125 126 127 128 129 130 131 132 133 134 135 136 137 138 139 140 141 142 143 144 145 146 147 148 149 150 151 152 153 154 155 156 157 158 159 160 161 162 163 164 165 166 167 168 169 170 171 172 173 174 175 176 177 178 179 180 181 182 183 184 185 186 187 188 189 190 191 192 193 194 195 196 197 198 199 200 201 202 203 204 205 206 207 208 209 210 211 212 213 214 215 216 217 218 219 220 221 222 223 224 225 226 227 228 229 230 231 232 233 234 235 236 237 238 239 240 241 242 243 244 245 246 247 248 249 250 251 252 253 254 255 256 257 258 259 260 261 262 263 264 265 266 267 268 269 270 271 272 273 274 275 276 277 278 279 280 281 282 283 284 285 286 287 288 289 290 291 292 293 294 295 296 297 298 299 300 301 302 303 304 305 306 307 308 309 310 311 312 313 314 315 316 317 318 319 320 321 322 323 324 325 326 327 328 329 330 331 332 333 334 335 336 337 338 339 340 341 342 343 344 345 346 347 348 349 350 351 352 353 354 355 356 357 358 359 360 361 362 363 364 365 366 367 368 369 370 371 372 373 374 375 376 377 378 379 380 381 382 383 384 385 386 387 388 389 390 391 392 393 394 395 396 397 398 399 400 401 402 403 404 405 406 407 408 409 410 411 412 413 

POINT_DATA 414
TEXTURE_COORDINATES TCoords 2 float
0 0 0.00242131 0 0.00484262 0 0.00726392 0 0.00968523 
0 0.0121065 0 0.0145278 0 0.0169492 0 0.0193705 0 
0.0217918 0 0.0242131 0 0.0266344 0 0.0290557 0 0.031477 
0 0.0338983 0 0.0363196 0 0.0387409 0 0.0411622 0 
0.0435835 0 0.0460048 0 0.0484262 0 0.0508475 0 0.0532688 
0 0.0556901 0 0.0581114 0 0.0605327 0 0.062954 0 
0.0653753 0 0.0677966 0 0.0702179 0 0.0726392 0 0.0750605 
0 0.0774818 0 0.0799031 0 0.0823245 0 0.0847458 0 
0.0871671 0 0.0895884 0 0.0920097 0 0.094431 0 0.0968523 
0 0.0992736 0 0.101695 0 0.104116 0 0.106538 0 
0.108959 0 0.11138 0 0.113801 0 0.116223 0 0.118644 
0 0.121065 0 0.123487 0 0.125908 0 0.128329 0 
0.130751 0 0.133172 0 0.135593 0 0.138015 0 0.140436 
0 0.142857 0 0.145278 0 0.1477 0 0.150121 0 
0.152542 0 0.154964 0 0.157385 0 0.159806 0 0.162228 
0 0.164649 0 0.16707 0 0.169492 0 0.171913 0 
0.174334 0 0.176755 0 0.179177 0 0.181598 0 0.184019 
0 0.186441 0 0.188862 0 0.191283 0 0.193705 0 
0.196126 0 0.198547 0 0.200969 0 0.20339 0 0.205811 
0 0.208232 0 0.210654 0 0.213075 0 0.215496 0 
0.217918 0 0.220339 0 0.22276 0 0.225182 0 0.227603 
0 0.230024 0 0.232446 0 0.234867 0 0.237288 0 
0.239709 0 0.242131 0 0.244552 0 0.246973 0 0.249395 
0 0.251816 0 0.254237 0 0.256659 0 0.25908 0 
0.261501 0 0.263923 0 0.266344 0 0.268765 0 0.271186 
0 0.273608 0 0.276029 0 0.27845 0 0.280872 0 
0.283293 0 0.285714 0 0.288136 0 0.290557 0 0.292978 
0 0.2954 0 0.297821 0 0.300242 0 0.302663 0 
0.305085 0 0.307506 0 0.309927 0 0.312349 0 0.31477 
0 0.317191 0 0.319613 0 0.322034 0 0.324455 0 
0.326877 0 0.329298 0 0.331719 0 0.33414 0 0.336562 
0 0.338983 0 0.341404 0 0.343826 0 0.346247 0 
0.348668 0 0.35109 0 0.353511 0 0.355932 0 0.358354 
0 0.360775 0 0.363196 0 0.365617 0 0.368039 0 
0.37046 0 0.372881 0 0.375303 0 0.377724 0 0.380145 
0 0.382567 0 0.384988 0 0.387409 0 0.38983 0 
0.392252 0 0.394673 0 0.397094 0 0.399516 0 0.401937 
0 0.404358 0 0.40678 0 0.409201 0 0.411622 0 
0.414044 0 0.416465 0 0.418886 0 0.421308 0 0.423729 
0 0.42615 0 0.428571 0 0.430993 0 0.433414 0 
0.435835 0 0.438257 0 0.440678 0 0.443099 0 0.445521 
0 0.447942 0 0.450363 0 0.452785 0 0.455206 0 
0.457627 0 0.460048 0 0.46247 0 0.464891 0 0.467312 
0 0.469734 0 0.472155 0 0.474576 0 0.476998 0 
0.479419 0 0.48184 0 0.484262 0 0.486683 0 0.489104 
0 0.491525 0 0.493947 0 0.496368 0 0.498789 0 
0.501211 0 0.503632 0 0.506053 0 0.508475 0 0.510896 
0 0.513317 0 0.515738 0 0.51816 0 0.520581 0 
0.523002 0 0.525424 0 0.527845 0 0.530266 0 0.532688 
0 0.535109 0 0.53753 0 0.539952 0 0.542373 0 
0.544794 0 0.547216 0 0.549637 0 0.552058 0 0.554479 
0 0.556901 0 0.559322 0 0.561743 0 0.564165 0 
0.566586 0 0.569007 0 0.571429 0 0.57385 0 0.576271 
0 0.578692 0 0.581114 0 0.583535 0 0.585956 0 
0.588378 0 0.590799 0 0.59322 0 0.595642 0 0.598063 
0 0.600484 0 0.602906 0 0.605327 0 0.607748 0 
0.610169 0 0.612591 0 0.615012 0 0.617433 0 0.619855 
0 0.622276 0 0.624697 0 0.627119 0 0.62954 0 
0.631961 0 0.634383 0 0.636804 0 0.639225 0 0.641647 
0 0.644068 0 0.646489 0 0.64891 0 0.651332 0 
0.653753 0 0.656174 0 0.658596 0 0.661017 0 0.663438 
0 0.66586 0 0.668281 0 0.670702 0 0.673123 0 
0.675545 0 0.677966 0 0.680387 0 0.682809 0 0.68523 
0 0.687651 0 0.690073 0 0.692494 0 0.694915 0 
0.697337 0 0.699758 0 0.702179 0 0.704601 0 0.707022 
0 0.709443 0 0.711864 0 0.714286 0 0.716707 0 
0.719128 0 0.72155 0 0.723971 0 0.726392 0 0.728814 
0 0.731235 0 0.733656 0 0.736077 0 0.738499 0 
0.74092 0 0.743341 0 0.745763 0 0.748184 0 0.750605 
0 0.753027 0 0.755448 0 0.757869 0 0.760291 0 
0.762712 0 0.765133 0 0.767554 0 0.769976 0 0.772397 
0 0.774818 0 0.77724 0 0.779661 0 0.782082 0 
0.784504 0 0.786925 0 0.789346 0 0.791768 0 0.794189 
0 0.79661 0 0.799031 0 0.801453 0 0.803874 0 
0.806295 0 0.808717 0 0.811138 0 0.813559 0 0.815981 
0 0.818402 0 0.820823 0 0.823245 0 0.825666 0 
0.828087 0 0.830508 0 0.83293 0 0.835351 0 0.837772 
0 0.840194 0 0.842615 0 0.845036 0 0.847458 0 
0.849879 0 0.8523 0 0.854722 0 0.857143 0 0.859564 
0 0.861985 0 0.864407 0 0.866828 0 0.869249 0 
0.871671 0 0.874092 0 0.876513 0 0.878935 0 0.881356 
0 0.883777 0 0.886199 0 0.88862 0 0.891041 0 
0.893462 0 0.895884 0 0.898305 0 0.900726 0 0.903148 
0 0.905569 0 0.90799 0 0.910412 0 0.912833 0 
0.915254 0 0.917676 0 0.920097 0 0.922518 0 0.924939 
0 0.927361 0 0.929782 0 0.932203 0 0.934625 0 
0.937046 0 0.939467 0 0.941889 0 0.94431 0 0.946731 
0 0.949153 0 0.951574 0 0.953995 0 0.956416 0 
0.958838 0 0.961259 0 0.96368 0 0.966102 0 0.968523 
0 0.970944 0 0.973366 0 0.975787 0 0.978208 0 
0.98063 0 0.983051 0 0.985472 0 0.987893 0 0.990315 
0 0.992736 0 0.995157 0 0.997579 0 1 0 

FIELD FieldData 1
MaximumInscribedSphereRadius 1 414 double
18.2072 18.2072 18.2072 18.2072 18.2072 18.2072 18.2072 18.2072 18.2072 
18.2072 18.2072 18.2072 18.2072 18.2072 18.2072 18.2072 18.2072 18.2072 
18.2072 18.2072 18.2072 18.2072 18.2072 18.2072 18.2072 18.2072 18.2072 
18.2072 18.2072 18.2072 18.2072 18.2072 18.2072 18.2072 18.2072 18.2072 
18.2072 18.2072 18.2072 18.2072 18.2072 18.2072 18.2072 18.2072 18.2072 
18.2072 18.2072 18.2072 18.2072 18.2072 18.2072 18.2072 18.2072 18.2072 
18.2072 18.2072 18.2072 18.2072 18.2072 18.2072 18.2072 18.2072 18.2072 
18.2072 18.2072 18.2072 18.2072 18.2072 18.2072 18.2072 18.2072 18.2072 
18.2072 18.2072 18.2072 18.2072 18.2072 18.2072 18.2072 18.2072 18.2072 
18.2072 18.2072 18.2072 18.2072 18.2072 18.2072 18.2072 18.2072 18.2072 
18.2072 18.2023 18.1256 18.0506 17.9769 17.9033 17.8381 17.7754 17.7128 
17.6502 17.5875 17.5249 17.4622 17.3996 17.3399 17.2815 17.2235 17.1654 
17.1073 17.0493 16.9912 16.9332 16.8751 16.8171 16.759 16.7209 16.6797 
16.6354 16.5912 16.547 16.5027 16.4585 16.4143 16.37 16.331 16.2959 
16.2608 16.2257 16.1906 16.1555 16.1143 16.0732 16.0321 15.9909 15.952 
15.9137 15.8754 15.837 15.7987 15.7604 15.7229 15.6896 15.6569 15.6278 
15.5999 15.572 15.5441 15.5163 15.4884 15.4695 15.4603 15.4512 15.442 
15.4283 15.413 15.3978 15.3825 15.3672 15.352 15.3367 15.3308 15.3249 
15.3169 15.3089 15.3009 15.2929 15.2849 15.277 15.2699 15.2331 15.1663 
15.0994 15.0325 14.9887 14.9499 14.9111 14.8723 14.8025 14.7076 14.6128 
14.518 14.4231 14.3283 14.2333 14.1371 14.0402 13.939 13.8358 13.7326 
13.6226 13.512 13.4015 13.291 13.1804 13.0699 12.9594 12.8544 12.7508 
12.6473 12.5438 12.4403 12.3367 12.2332 12.1309 12.03 11.9267 11.8266 
11.7265 11.6264 11.5265 11.4271 11.3277 11.2302 11.1405 11.0541 10.9678 
10.8814 10.7951 10.7087 10.6224 10.5368 10.4621 10.3954 10.3288 10.2621 
10.1954 10.1288 10.0621 9.99544 9.92877 9.86681 9.80814 9.74935 9.69018 
9.63101 9.57183 9.51266 9.45349 9.39252 9.32717 9.26534 9.20253 9.13841 
9.07572 9.01435 8.95442 8.88708 8.81608 8.74509 8.66929 8.59398 8.51867 
8.44485 8.38535 8.32786 8.27037 8.21287 8.15538 8.09963 8.05419 8.00874 
7.97223 7.93599 7.89606 7.85684 7.82715 7.79746 7.76777 7.73808 7.71331 
7.69288 7.67104 7.64919 7.62746 7.60885 7.59312 7.57739 7.56662 7.55934 
7.55188 7.54072 7.51307 7.48576 7.45964 7.43592 7.41221 7.38849 7.36068 
7.32833 7.29518 7.25214 7.1839 7.11566 7.04741 6.97917 6.91092 6.84308 
6.77585 6.70862 6.65404 6.60261 6.54677 6.48479 6.41724 6.34206 6.26311 
6.18317 6.10364 6.02615 5.94934 5.87938 5.80942 5.73965 5.67099 5.60077 
5.52328 5.45617 5.38936 5.34252 5.2986 5.24692 5.202 5.15707 5.11163 
5.06448 5.01733 4.97017 4.93095 4.8923 4.85323 4.81417 4.78129 4.75338 
4.72546 4.69755 4.67819 4.66038 4.64257 4.61972 4.59178 4.56416 4.53728 
4.5104 4.48352 4.45664 4.44511 4.44102 4.43645 4.42643 4.41821 4.41 
4.40178 4.39909 4.39678 4.39499 4.3932 4.39141 4.38965 4.38361 4.37342 
4.36853 4.36472 4.36092 4.35075 4.33925 4.32783 4.31319 4.2809 4.23238 
4.17809 4.1238 4.07706 4.03257 3.98808 3.94358 3.88354 3.81833 3.75311 
3.68873 3.62536 3.5623 3.50104 3.43868 3.37686 3.31508 3.2577 3.22498 
3.19227 3.1556 3.11835 3.07984 3.03146 2.97959 2.92772 2.87586 2.82399 
2.71872 2.6072 2.49568 2.38417 2.27265 2.16113 2.06205 1.96788 1.93731 
1.93731 1.93731 1.93731 1.93731 1.93731 1.93731 1.93731 1.93731 1.93731 

