# vtk DataFile Version 4.0
vtk output
ASCII
DATASET POLYDATA
POINTS 386 float
5.26686 160.646 1013.69 5.26122 160.641 1013.69 5.24449 160.627 1013.68 
5.21697 160.603 1013.68 5.17896 160.57 1013.67 5.13074 160.529 1013.65 
5.07263 160.478 1013.64 5.0049 160.419 1013.62 4.92786 160.352 1013.6 
4.84179 160.276 1013.57 4.74701 160.193 1013.55 4.6438 160.102 1013.52 
4.53245 160.003 1013.49 4.41327 159.898 1013.45 4.28655 159.785 1013.42 
4.15258 159.665 1013.38 4.01166 159.538 1013.34 3.86408 159.405 1013.3 
3.71014 159.266 1013.26 3.55014 159.121 1013.21 3.38436 158.97 1013.17 
3.21312 158.813 1013.12 3.03669 158.65 1013.07 2.85538 158.483 1013.02 
2.66948 158.31 1012.97 2.47929 158.132 1012.91 2.2851 157.95 1012.86 
2.08721 157.764 1012.8 1.88591 157.573 1012.74 1.6815 157.378 1012.69 
1.47427 157.179 1012.63 1.26452 156.976 1012.57 1.05255 156.77 1012.51 
0.838648 156.561 1012.44 0.62311 156.349 1012.38 0.406232 156.134 1012.32 
0.18831 155.916 1012.26 -0.0303612 155.696 1012.19 -0.249486 155.474 1012.13 
-0.468768 155.25 1012.07 -0.687913 155.024 1012 -0.906626 154.796 1011.94 
-1.12461 154.567 1011.87 -1.34157 154.337 1011.81 -1.55721 154.105 1011.74 
-1.77124 153.873 1011.68 -1.98336 153.64 1011.62 -2.19328 153.407 1011.55 
-2.40069 153.174 1011.49 -2.60531 152.941 1011.43 -2.80684 152.708 1011.37 
-3.00498 152.475 1011.3 -3.19944 152.243 1011.24 -3.38993 152.012 1011.18 
-3.57614 151.781 1011.13 -3.75778 151.552 1011.07 -3.93457 151.325 1011.01 
-4.10619 151.099 1010.96 -4.27236 150.875 1010.9 -4.43278 150.653 1010.85 
-4.58716 150.433 1010.8 -4.73519 150.216 1010.75 -4.8766 150.001 1010.7 
-5.01107 149.79 1010.65 -5.13831 149.581 1010.6 -5.25804 149.375 1010.56 
-5.36995 149.173 1010.52 -5.47374 148.975 1010.48 -5.56913 148.781 1010.44 
-5.65582 148.59 1010.4 -5.73351 148.404 1010.37 -5.80191 148.223 1010.34 
-5.86071 148.046 1010.31 -5.90964 147.874 1010.28 -5.94838 147.707 1010.26 
-5.97665 147.545 1010.23 -5.99415 147.389 1010.21 -6.00059 147.238 1010.2 
-5.99566 147.094 1010.18 -5.97908 146.955 1010.17 -5.95055 146.823 1010.16 
-5.90977 146.698 1010.15 -5.85645 146.579 1010.15 -5.79029 146.467 1010.15 
-5.711 146.362 1010.15 -5.61828 146.264 1010.16 -5.51184 146.174 1010.17 
-5.39137 146.092 1010.18 -5.2566 146.018 1010.2 -5.10721 145.952 1010.22 
-4.94292 145.894 1010.24 -4.76343 145.844 1010.27 -4.57076 145.802 1010.3 
-4.37467 145.761 1010.32 -4.18011 145.716 1010.34 -3.98626 145.67 1010.35 
-3.7922 145.625 1010.37 -3.5977 145.579 1010.38 -3.40296 145.534 1010.39 
-3.20815 145.489 1010.4 -3.01344 145.445 1010.42 -2.81902 145.401 1010.44 
-2.62506 145.357 1010.47 -2.43175 145.313 1010.5 -2.23947 145.269 1010.53 
-2.04924 145.226 1010.57 -1.85636 145.195 1010.62 -1.6622 145.164 1010.65 
-1.46782 145.129 1010.67 -1.27326 145.09 1010.67 -1.07855 145.047 1010.66 
-0.883721 145.002 1010.64 -0.688792 144.954 1010.62 -0.493795 144.905 1010.6 
-0.298759 144.855 1010.57 -0.103712 144.804 1010.55 0.0913175 144.753 1010.53 
0.286302 144.703 1010.51 0.481201 144.654 1010.5 0.675954 144.605 1010.5 
0.8705 144.558 1010.5 1.06478 144.511 1010.5 1.25872 144.464 1010.5 
1.45227 144.418 1010.49 1.64539 144.372 1010.48 1.8381 144.327 1010.46 
2.03044 144.281 1010.43 2.22245 144.237 1010.4 2.41418 144.192 1010.37 
2.60566 144.148 1010.33 2.79694 144.105 1010.29 2.98806 144.062 1010.24 
3.17905 144.019 1010.2 3.36996 143.977 1010.15 3.56082 143.936 1010.1 
3.75169 143.894 1010.05 3.9426 143.854 1010 4.13359 143.814 1009.95 
4.32471 143.774 1009.9 4.51598 143.735 1009.85 4.70758 143.697 1009.81 
4.90068 143.664 1009.77 5.09586 143.637 1009.73 5.29133 143.609 1009.7 
5.48508 143.571 1009.67 5.67653 143.521 1009.64 5.8676 143.469 1009.61 
6.05963 143.422 1009.57 6.25129 143.377 1009.54 6.44153 143.329 1009.5 
6.63052 143.279 1009.45 6.81853 143.227 1009.4 7.00578 143.173 1009.36 
7.19255 143.117 1009.31 7.37907 143.061 1009.26 7.5656 143.004 1009.21 
7.7524 142.946 1009.16 7.9397 142.889 1009.12 8.12776 142.832 1009.09 
8.31684 142.776 1009.06 8.50718 142.72 1009.03 8.69939 142.668 1009.02 
8.89978 142.636 1009.03 9.0992 142.61 1009.05 9.28048 142.553 1009.09 
9.43401 142.447 1009.13 9.56593 142.301 1009.17 9.68437 142.133 1009.21 
9.79745 141.958 1009.25 9.9131 141.791 1009.28 10.034 141.637 1009.32 
10.1568 141.487 1009.37 10.2791 141.336 1009.41 10.4006 141.184 1009.46 
10.5218 141.03 1009.5 10.643 140.875 1009.54 10.7641 140.721 1009.58 
10.8853 140.566 1009.62 11.0065 140.412 1009.66 11.1276 140.258 1009.7 
11.2488 140.105 1009.75 11.37 139.952 1009.79 11.4912 139.8 1009.84 
11.6124 139.646 1009.88 11.7336 139.493 1009.92 11.8548 139.338 1009.96 
11.9762 139.183 1010 12.0987 139.028 1010.03 12.2238 138.875 1010.06 
12.3516 138.724 1010.09 12.4809 138.575 1010.13 12.6103 138.426 1010.17 
12.7385 138.277 1010.21 12.8641 138.126 1010.25 12.9858 137.973 1010.29 
13.1023 137.817 1010.34 13.2121 137.656 1010.38 13.314 137.49 1010.43 
13.4079 137.318 1010.48 13.4989 137.144 1010.52 13.593 136.97 1010.54 
13.6935 136.798 1010.53 13.7966 136.627 1010.51 13.8976 136.455 1010.48 
13.9919 136.279 1010.46 14.0776 136.099 1010.45 14.1565 135.915 1010.46 
14.2309 135.729 1010.46 14.3029 135.542 1010.47 14.3747 135.354 1010.48 
14.4486 135.168 1010.49 14.5266 134.983 1010.49 14.6122 134.803 1010.48 
14.7054 134.626 1010.47 14.8034 134.452 1010.46 14.9038 134.277 1010.45 
15.0021 134.102 1010.44 15.0923 133.923 1010.44 15.1683 133.739 1010.44 
15.2279 133.549 1010.46 15.2817 133.357 1010.48 15.3426 133.168 1010.51 
15.4175 132.985 1010.54 15.4889 132.801 1010.57 15.5528 132.614 1010.61 
15.6183 132.427 1010.65 15.695 132.245 1010.67 15.7887 132.068 1010.67 
15.8828 131.892 1010.68 15.9639 131.709 1010.69 16.0542 131.531 1010.7 
16.1534 131.357 1010.69 16.2551 131.184 1010.68 16.3535 131.01 1010.69 
16.4474 130.835 1010.72 16.5406 130.66 1010.74 16.6304 130.486 1010.78 
16.7245 130.313 1010.83 16.8302 130.145 1010.85 16.9471 129.982 1010.85 
17.0701 129.824 1010.85 17.1915 129.665 1010.85 17.305 129.5 1010.85 
17.4177 129.335 1010.86 17.528 129.169 1010.88 17.6429 129.006 1010.9 
17.7698 128.852 1010.9 17.9015 128.7 1010.89 18.0308 128.547 1010.89 
18.1551 128.39 1010.88 18.2782 128.232 1010.87 18.4045 128.077 1010.87 
18.5375 127.927 1010.87 18.6771 127.784 1010.88 18.8202 127.645 1010.9 
18.965 127.509 1010.92 19.1118 127.376 1010.95 19.2614 127.247 1010.99 
19.4148 127.123 1011.02 19.5726 127.004 1011.05 19.7357 126.893 1011.09 
19.9048 126.79 1011.12 20.0769 126.692 1011.16 20.2445 126.59 1011.2 
20.3995 126.474 1011.25 20.5402 126.343 1011.3 20.6773 126.206 1011.35 
20.8221 126.077 1011.4 20.978 125.958 1011.45 21.1365 125.839 1011.48 
21.2885 125.71 1011.49 21.4334 125.572 1011.47 21.5833 125.443 1011.44 
21.7475 125.337 1011.4 21.9188 125.242 1011.35 22.0869 125.142 1011.31 
22.2505 125.033 1011.27 22.4138 124.919 1011.25 22.5985 124.847 1011.23 
22.7942 124.799 1011.21 22.9833 124.737 1011.2 23.1621 124.653 1011.17 
23.3509 124.595 1011.13 23.5344 124.525 1011.1 23.7037 124.419 1011.09 
23.8674 124.301 1011.07 24.0351 124.196 1011.04 24.2162 124.115 1011.01 
24.4024 124.041 1011 24.5823 123.953 1011 24.7629 123.867 1010.99 
24.9485 123.793 1010.98 25.1374 123.727 1010.96 25.3276 123.667 1010.94 
25.517 123.608 1010.91 25.7036 123.541 1010.89 25.8863 123.461 1010.86 
26.0677 123.378 1010.84 26.2513 123.303 1010.81 26.4407 123.247 1010.79 
26.6357 123.211 1010.76 26.8294 123.172 1010.72 27.0158 123.111 1010.69 
27.1976 123.039 1010.64 27.3805 122.977 1010.59 27.5676 122.931 1010.53 
27.7595 122.899 1010.49 27.9553 122.878 1010.46 28.1542 122.865 1010.44 
28.3551 122.857 1010.43 28.557 122.85 1010.42 28.7589 122.844 1010.41 
28.9599 122.833 1010.39 29.1588 122.817 1010.37 29.3548 122.792 1010.34 
29.5467 122.754 1010.29 29.7353 122.71 1010.24 29.9237 122.676 1010.18 
30.1153 122.672 1010.13 30.31 122.694 1010.09 30.5055 122.729 1010.05 
30.6999 122.764 1010.01 30.8929 122.797 1009.96 31.0843 122.826 1009.91 
31.2739 122.851 1009.85 31.4616 122.87 1009.79 31.6473 122.883 1009.71 
31.828 122.886 1009.63 32.0061 122.877 1009.54 32.1897 122.863 1009.46 
32.379 122.849 1009.39 32.5708 122.836 1009.34 32.762 122.826 1009.28 
32.9497 122.822 1009.21 33.1322 122.824 1009.13 33.3114 122.83 1009.04 
33.4897 122.837 1008.94 33.6692 122.842 1008.85 33.8508 122.844 1008.77 
34.035 122.84 1008.69 34.2223 122.826 1008.62 34.4134 122.802 1008.56 
34.6058 122.767 1008.51 34.7906 122.731 1008.44 34.9586 122.703 1008.34 
35.1105 122.686 1008.21 35.2592 122.68 1008.07 35.4177 122.682 1007.95 
35.5904 122.687 1007.85 35.7718 122.688 1007.76 35.9558 122.674 1007.68 
36.1364 122.639 1007.6 36.3107 122.588 1007.51 36.4814 122.557 1007.41 
36.6516 122.571 1007.31 36.8232 122.606 1007.21 36.9971 122.631 1007.12 
37.1728 122.637 1007.02 37.3494 122.626 1006.92 37.5304 122.6 1006.83 
37.7202 122.56 1006.79 37.9167 122.509 1006.79 38.1047 122.445 1006.77 
38.2714 122.368 1006.71 38.4268 122.28 1006.61 38.5883 122.189 1006.53 
38.7603 122.102 1006.48 38.9375 122.027 1006.42 39.1205 121.958 1006.38 
39.3075 121.889 1006.35 39.4793 121.786 1006.37 39.6455 121.68 1006.4 
39.7788 121.534 1006.41 39.8938 121.369 1006.38 40.0235 121.232 1006.34 
40.1682 121.112 1006.28 40.3171 120.977 1006.19 40.4624 120.815 1006.08 
40.6011 120.635 1005.95 40.7304 120.445 1005.81 40.8474 120.256 1005.68 
40.9494 120.079 1005.55 41.0336 119.924 1005.43 41.0972 119.8 1005.34 
41.1374 119.718 1005.28 41.1514 119.689 1005.26 
LINES 1 387
386 0 1 2 3 4 5 6 7 8 9 10 11 12 13 14 15 16 17 18 19 20 21 22 23 24 25 26 27 28 29 30 31 32 33 34 35 36 37 38 39 40 41 42 43 44 45 46 47 48 49 50 51 52 53 54 55 56 57 58 59 60 61 62 63 64 65 66 67 68 69 70 71 72 73 74 75 76 77 78 79 80 81 82 83 84 85 86 87 88 89 90 91 92 93 94 95 96 97 98 99 100 101 102 103 104 105 106 107 108 109 110 111 112 113 114 115 116 117 118 119 120 121 122 123 124 125 126 127 128 129 130 131 132 133 134 135 136 137 138 139 140 141 142 143 144 145 146 147 148 149 150 151 152 153 154 155 156 157 158 159 160 161 162 163 164 165 166 167 168 169 170 171 172 173 174 175 176 177 178 179 180 181 182 183 184 185 186 187 188 189 190 191 192 193 194 195 196 197 198 199 200 201 202 203 204 205 206 207 208 209 210 211 212 213 214 215 216 217 218 219 220 221 222 223 224 225 226 227 228 229 230 231 232 233 234 235 236 237 238 239 240 241 242 243 244 245 246 247 248 249 250 251 252 253 254 255 256 257 258 259 260 261 262 263 264 265 266 267 268 269 270 271 272 273 274 275 276 277 278 279 280 281 282 283 284 285 286 287 288 289 290 291 292 293 294 295 296 297 298 299 300 301 302 303 304 305 306 307 308 309 310 311 312 313 314 315 316 317 318 319 320 321 322 323 324 325 326 327 328 329 330 331 332 333 334 335 336 337 338 339 340 341 342 343 344 345 346 347 348 349 350 351 352 353 354 355 356 357 358 359 360 361 362 363 364 365 366 367 368 369 370 371 372 373 374 375 376 377 378 379 380 381 382 383 384 385 

POINT_DATA 386
TEXTURE_COORDINATES TCoords 2 float
0 0 0.0025974 0 0.00519481 0 0.00779221 0 0.0103896 
0 0.012987 0 0.0155844 0 0.0181818 0 0.0207792 0 
0.0233766 0 0.025974 0 0.0285714 0 0.0311688 0 0.0337662 
0 0.0363636 0 0.038961 0 0.0415584 0 0.0441558 0 
0.0467532 0 0.0493506 0 0.0519481 0 0.0545455 0 0.0571429 
0 0.0597403 0 0.0623377 0 0.0649351 0 0.0675325 0 
0.0701299 0 0.0727273 0 0.0753247 0 0.0779221 0 0.0805195 
0 0.0831169 0 0.0857143 0 0.0883117 0 0.0909091 0 
0.0935065 0 0.0961039 0 0.0987013 0 0.101299 0 0.103896 
0 0.106494 0 0.109091 0 0.111688 0 0.114286 0 
0.116883 0 0.119481 0 0.122078 0 0.124675 0 0.127273 
0 0.12987 0 0.132468 0 0.135065 0 0.137662 0 
0.14026 0 0.142857 0 0.145455 0 0.148052 0 0.150649 
0 0.153247 0 0.155844 0 0.158442 0 0.161039 0 
0.163636 0 0.166234 0 0.168831 0 0.171429 0 0.174026 
0 0.176623 0 0.179221 0 0.181818 0 0.184416 0 
0.187013 0 0.18961 0 0.192208 0 0.194805 0 0.197403 
0 0.2 0 0.202597 0 0.205195 0 0.207792 0 
0.21039 0 0.212987 0 0.215584 0 0.218182 0 0.220779 
0 0.223377 0 0.225974 0 0.228571 0 0.231169 0 
0.233766 0 0.236364 0 0.238961 0 0.241558 0 0.244156 
0 0.246753 0 0.249351 0 0.251948 0 0.254545 0 
0.257143 0 0.25974 0 0.262338 0 0.264935 0 0.267532 
0 0.27013 0 0.272727 0 0.275325 0 0.277922 0 
0.280519 0 0.283117 0 0.285714 0 0.288312 0 0.290909 
0 0.293507 0 0.296104 0 0.298701 0 0.301299 0 
0.303896 0 0.306494 0 0.309091 0 0.311688 0 0.314286 
0 0.316883 0 0.319481 0 0.322078 0 0.324675 0 
0.327273 0 0.32987 0 0.332468 0 0.335065 0 0.337662 
0 0.34026 0 0.342857 0 0.345455 0 0.348052 0 
0.350649 0 0.353247 0 0.355844 0 0.358442 0 0.361039 
0 0.363636 0 0.366234 0 0.368831 0 0.371429 0 
0.374026 0 0.376623 0 0.379221 0 0.381818 0 0.384416 
0 0.387013 0 0.38961 0 0.392208 0 0.394805 0 
0.397403 0 0.4 0 0.402597 0 0.405195 0 0.407792 
0 0.41039 0 0.412987 0 0.415584 0 0.418182 0 
0.420779 0 0.423377 0 0.425974 0 0.428571 0 0.431169 
0 0.433766 0 0.436364 0 0.438961 0 0.441558 0 
0.444156 0 0.446753 0 0.449351 0 0.451948 0 0.454545 
0 0.457143 0 0.45974 0 0.462338 0 0.464935 0 
0.467532 0 0.47013 0 0.472727 0 0.475325 0 0.477922 
0 0.480519 0 0.483117 0 0.485714 0 0.488312 0 
0.490909 0 0.493506 0 0.496104 0 0.498701 0 0.501299 
0 0.503896 0 0.506494 0 0.509091 0 0.511688 0 
0.514286 0 0.516883 0 0.519481 0 0.522078 0 0.524675 
0 0.527273 0 0.52987 0 0.532468 0 0.535065 0 
0.537662 0 0.54026 0 0.542857 0 0.545455 0 0.548052 
0 0.550649 0 0.553247 0 0.555844 0 0.558442 0 
0.561039 0 0.563636 0 0.566234 0 0.568831 0 0.571429 
0 0.574026 0 0.576623 0 0.579221 0 0.581818 0 
0.584416 0 0.587013 0 0.58961 0 0.592208 0 0.594805 
0 0.597403 0 0.6 0 0.602597 0 0.605195 0 
0.607792 0 0.61039 0 0.612987 0 0.615584 0 0.618182 
0 0.620779 0 0.623377 0 0.625974 0 0.628571 0 
0.631169 0 0.633766 0 0.636364 0 0.638961 0 0.641558 
0 0.644156 0 0.646753 0 0.649351 0 0.651948 0 
0.654545 0 0.657143 0 0.65974 0 0.662338 0 0.664935 
0 0.667532 0 0.67013 0 0.672727 0 0.675325 0 
0.677922 0 0.680519 0 0.683117 0 0.685714 0 0.688312 
0 0.690909 0 0.693506 0 0.696104 0 0.698701 0 
0.701299 0 0.703896 0 0.706493 0 0.709091 0 0.711688 
0 0.714286 0 0.716883 0 0.719481 0 0.722078 0 
0.724675 0 0.727273 0 0.72987 0 0.732468 0 0.735065 
0 0.737662 0 0.74026 0 0.742857 0 0.745455 0 
0.748052 0 0.750649 0 0.753247 0 0.755844 0 0.758442 
0 0.761039 0 0.763636 0 0.766234 0 0.768831 0 
0.771429 0 0.774026 0 0.776623 0 0.779221 0 0.781818 
0 0.784416 0 0.787013 0 0.78961 0 0.792208 0 
0.794805 0 0.797403 0 0.8 0 0.802597 0 0.805195 
0 0.807792 0 0.81039 0 0.812987 0 0.815584 0 
0.818182 0 0.820779 0 0.823377 0 0.825974 0 0.828571 
0 0.831169 0 0.833766 0 0.836364 0 0.838961 0 
0.841558 0 0.844156 0 0.846753 0 0.849351 0 0.851948 
0 0.854545 0 0.857143 0 0.85974 0 0.862338 0 
0.864935 0 0.867532 0 0.87013 0 0.872727 0 0.875325 
0 0.877922 0 0.88052 0 0.883117 0 0.885714 0 
0.888312 0 0.890909 0 0.893506 0 0.896104 0 0.898701 
0 0.901299 0 0.903896 0 0.906493 0 0.909091 0 
0.911688 0 0.914286 0 0.916883 0 0.919481 0 0.922078 
0 0.924675 0 0.927273 0 0.92987 0 0.932468 0 
0.935065 0 0.937662 0 0.94026 0 0.942857 0 0.945455 
0 0.948052 0 0.950649 0 0.953247 0 0.955844 0 
0.958442 0 0.961039 0 0.963636 0 0.966234 0 0.968831 
0 0.971429 0 0.974026 0 0.976623 0 0.979221 0 
0.981818 0 0.984416 0 0.987013 0 0.98961 0 0.992208 
0 0.994805 0 0.997403 0 1 0 
FIELD FieldData 1
MaximumInscribedSphereRadius 1 386 double
18.2072 18.2072 18.2072 18.2072 18.2072 18.2072 18.2072 18.2072 18.2072 
18.2072 18.2072 18.2072 18.2072 18.2072 18.2072 18.2072 18.2072 18.2072 
18.2072 18.2072 18.2072 18.2072 18.2072 18.2072 18.2072 18.2072 18.2072 
18.2072 18.2072 18.2072 18.2072 18.2072 18.2072 18.2072 18.2072 18.2072 
18.2072 18.2072 18.2072 18.2072 18.2072 18.2072 18.2072 18.2072 18.2072 
18.2072 18.2072 18.2072 18.2072 18.2072 18.2072 18.2072 18.2072 18.2072 
18.2072 18.2072 18.2072 18.2072 18.2072 18.2072 18.2072 18.2072 18.2072 
18.2072 18.2072 18.2072 18.2072 18.2072 18.2072 18.2072 18.2072 18.2072 
18.2072 18.2072 18.2072 18.2072 18.2072 18.2072 18.2072 18.2072 18.2072 
18.2072 18.2072 18.2072 18.2072 18.2072 18.2072 18.2072 18.2072 18.2072 
18.2072 18.2038 18.1272 18.0521 17.9785 17.9048 17.8394 17.7768 17.7142 
17.6516 17.5889 17.5263 17.4637 17.4011 17.3413 17.2829 17.2249 17.1655 
17.1058 17.0461 16.9864 16.9267 16.8669 16.8072 16.7475 16.6878 16.6281 
16.5717 16.5229 16.474 16.4252 16.3763 16.3274 16.2795 16.2494 16.2192 
16.1891 16.159 16.1289 16.0988 16.0687 16.0386 16.0085 15.9784 15.9482 
15.9181 15.888 15.8579 15.8278 15.7977 15.7806 15.7676 15.7521 15.7365 
15.717 15.6884 15.66 15.6351 15.6133 15.5962 15.5791 15.5619 15.5448 
15.5277 15.5105 15.4934 15.4763 15.4591 15.442 15.4249 15.4077 15.3958 
15.3923 15.3888 15.3594 15.2396 15.1198 15.0001 14.8803 14.7582 14.6333 
14.5096 14.3966 14.2836 14.1705 14.0555 13.9404 13.8253 13.7102 13.6026 
13.4987 13.3948 13.2909 13.187 13.0831 12.9792 12.8755 12.7719 12.6736 
12.5838 12.4939 12.4041 12.3143 12.2244 12.1346 12.0447 11.9549 11.8645 
11.7631 11.6616 11.5546 11.4184 11.2823 11.1462 11.018 10.9035 10.789 
10.6745 10.56 10.4454 10.3309 10.2165 10.0996 9.98267 9.86568 9.7539 
9.64847 9.54304 9.43989 9.36413 9.28838 9.21263 9.12688 9.04765 8.97187 
8.89608 8.82029 8.74226 8.66387 8.5955 8.52854 8.46158 8.39461 8.32991 
8.26848 8.20884 8.15187 8.0952 8.03955 7.98611 7.93442 7.88274 7.83854 
7.79543 7.75288 7.71182 7.67168 7.63154 7.59691 7.57022 7.54352 7.51682 
7.48821 7.45876 7.42777 7.38918 7.35071 7.31246 7.2742 7.23594 7.19769 
7.1597 7.12215 7.0846 7.04254 6.98777 6.933 6.87604 6.81551 6.75498 
6.69118 6.62041 6.54964 6.44797 6.34617 6.2509 6.15717 6.05791 5.92781 
5.79571 5.66502 5.54652 5.41728 5.30787 5.21488 5.12273 5.03905 4.94637 
4.85176 4.7626 4.67345 4.58411 4.49477 4.406 4.32436 4.24416 4.188 
4.13184 4.07568 4.02149 3.97241 3.92334 3.8996 3.87916 3.85477 3.82752 
3.81785 3.80818 3.79851 3.78884 3.77917 3.76951 3.75984 3.75017 3.7405 
3.74198 3.77453 3.80708 3.8179 3.81835 3.81943 3.82612 3.8328 3.83948 
3.84616 3.85284 3.86218 3.87159 3.87503 3.85281 3.82729 3.80177 3.77626 
3.75341 3.74231 3.73122 3.72012 3.73403 3.7485 3.76298 3.77745 3.79374 
3.81639 3.83904 3.84561 3.8317 3.81778 3.80848 3.80479 3.8011 3.79741 
3.79436 3.79293 3.7915 3.77362 3.75534 3.7572 3.76072 3.73288 3.70144 
3.66375 3.60856 3.55336 3.46077 3.36302 3.26459 3.17044 3.08545 3.00046 
2.91529 2.80249 2.68091 2.52671 2.36102 2.17774 1.99238 1.87495 1.87495 
1.87495 1.87495 1.87495 1.87495 1.87495 1.87495 1.87495 1.87495 
