# vtk DataFile Version 4.0
vtk output
ASCII
DATASET POLYDATA
POINTS 472 float
5.26686 160.646 1013.69 5.26541 160.641 1013.69 5.26106 160.627 1013.68 
5.25384 160.605 1013.68 5.24375 160.573 1013.67 5.23082 160.533 1013.65 
5.21506 160.484 1013.64 5.19648 160.427 1013.62 5.17511 160.362 1013.59 
5.15095 160.289 1013.57 5.12403 160.209 1013.54 5.09436 160.121 1013.51 
5.06195 160.026 1013.48 5.02683 159.924 1013.45 4.98901 159.814 1013.41 
4.9485 159.698 1013.37 4.90532 159.576 1013.33 4.85949 159.447 1013.29 
4.81102 159.313 1013.25 4.75993 159.172 1013.2 4.70624 159.025 1013.15 
4.64996 158.873 1013.11 4.5911 158.716 1013.05 4.52969 158.553 1013 
4.46573 158.386 1012.95 4.39925 158.213 1012.89 4.33026 158.036 1012.84 
4.25878 157.855 1012.78 4.18483 157.669 1012.72 4.10841 157.48 1012.66 
4.02955 157.287 1012.6 3.94825 157.089 1012.54 3.86455 156.889 1012.48 
3.77845 156.685 1012.42 3.68997 156.478 1012.35 3.59913 156.269 1012.29 
3.50593 156.056 1012.22 3.41041 155.842 1012.16 3.31257 155.624 1012.1 
3.21243 155.405 1012.03 3.11 155.184 1011.96 3.00531 154.961 1011.9 
2.89836 154.737 1011.83 2.78918 154.511 1011.77 2.67778 154.284 1011.7 
2.56418 154.056 1011.64 2.44839 153.827 1011.57 2.33042 153.598 1011.51 
2.21031 153.369 1011.45 2.08805 153.139 1011.38 1.96366 152.909 1011.32 
1.83718 152.679 1011.26 1.70859 152.45 1011.2 1.57794 152.222 1011.14 
1.44522 151.994 1011.08 1.31047 151.767 1011.02 1.17368 151.541 1010.96 
1.03488 151.316 1010.91 0.894092 151.094 1010.85 0.751321 150.872 1010.8 
0.606588 150.653 1010.75 0.459908 150.436 1010.7 0.311297 150.221 1010.65 
0.160771 150.009 1010.6 0.00834625 149.799 1010.56 -0.145961 149.592 1010.51 
-0.302135 149.388 1010.47 -0.460159 149.188 1010.43 -0.620017 148.991 1010.39 
-0.781695 148.797 1010.36 -0.945174 148.608 1010.32 -1.11044 148.422 1010.29 
-1.27748 148.241 1010.26 -1.44627 148.064 1010.24 -1.61679 147.891 1010.21 
-1.78904 147.723 1010.19 -1.963 147.561 1010.17 -2.13865 147.403 1010.16 
-2.31597 147.251 1010.14 -2.49495 147.105 1010.13 -2.67557 146.964 1010.13 
-2.85781 146.829 1010.12 -3.04167 146.7 1010.12 -3.22712 146.578 1010.12 
-3.41414 146.462 1010.13 -3.60273 146.352 1010.14 -3.79286 146.25 1010.15 
-3.98453 146.155 1010.17 -4.1777 146.067 1010.19 -4.37238 145.986 1010.21 
-4.56853 145.913 1010.24 -4.76615 145.848 1010.27 -4.96516 145.791 1010.3 
-5.16519 145.741 1010.34 -5.3658 145.698 1010.37 -5.56657 145.661 1010.41 
-5.76704 145.628 1010.43 -5.96679 145.601 1010.45 -6.16538 145.577 1010.46 
-6.36237 145.556 1010.46 -6.55732 145.537 1010.44 -6.7498 145.519 1010.41 
-6.93937 145.503 1010.35 -7.12938 145.483 1010.29 -7.32231 145.458 1010.25 
-7.51501 145.432 1010.2 -7.70752 145.405 1010.15 -7.89996 145.378 1010.1 
-8.09242 145.352 1010.04 -8.28498 145.326 1009.99 -8.47775 145.302 1009.94 
-8.67081 145.279 1009.9 -8.86427 145.26 1009.85 -9.05821 145.243 1009.8 
-9.25273 145.23 1009.76 -9.44792 145.221 1009.72 -9.64389 145.218 1009.68 
-9.84071 145.219 1009.65 -10.0383 145.227 1009.62 -10.2365 145.243 1009.59 
-10.4352 145.264 1009.57 -10.6342 145.288 1009.55 -10.8336 145.314 1009.53 
-11.0332 145.34 1009.52 -11.2329 145.363 1009.52 -11.4327 145.381 1009.51 
-11.6324 145.393 1009.51 -11.8319 145.397 1009.52 -12.0312 145.391 1009.53 
-12.2305 145.38 1009.54 -12.4304 145.382 1009.53 -12.6306 145.397 1009.51 
-12.8306 145.422 1009.49 -13.0301 145.454 1009.47 -13.2286 145.492 1009.45 
-13.4257 145.533 1009.44 -13.621 145.575 1009.45 -13.8141 145.615 1009.48 
-14.0057 145.652 1009.52 -14.199 145.687 1009.56 -14.3929 145.722 1009.6 
-14.5856 145.76 1009.64 -14.7751 145.805 1009.68 -14.9597 145.859 1009.74 
-15.1367 145.929 1009.8 -15.3135 146.005 1009.85 -15.4928 146.08 1009.9 
-15.6742 146.155 1009.94 -15.8572 146.229 1009.97 -16.04 146.304 1010 
-16.2212 146.377 1010.04 -16.4008 146.451 1010.09 -16.5797 146.527 1010.14 
-16.7579 146.606 1010.19 -16.9351 146.687 1010.23 -17.111 146.771 1010.28 
-17.2855 146.858 1010.32 -17.4584 146.948 1010.37 -17.6297 147.041 1010.41 
-17.7996 147.137 1010.45 -17.9682 147.235 1010.5 -18.1357 147.335 1010.55 
-18.302 147.436 1010.59 -18.4675 147.538 1010.64 -18.6327 147.64 1010.69 
-18.8011 147.741 1010.73 -18.9727 147.839 1010.76 -19.1428 147.938 1010.8 
-19.3064 148.04 1010.85 -19.4625 148.147 1010.92 -19.622 148.254 1010.97 
-19.7733 148.369 1011.03 -19.9336 148.485 1011.06 -20.0956 148.603 1011.06 
-20.2528 148.727 1011.07 -20.4059 148.855 1011.08 -20.5555 148.986 1011.09 
-20.7023 149.121 1011.11 -20.8468 149.258 1011.13 -20.9898 149.397 1011.15 
-21.1317 149.537 1011.17 -21.2733 149.678 1011.19 -21.4151 149.818 1011.21 
-21.5578 149.958 1011.23 -21.702 150.097 1011.25 -21.8478 150.233 1011.27 
-21.9939 150.369 1011.28 -22.1389 150.506 1011.3 -22.2809 150.644 1011.33 
-22.4188 150.784 1011.36 -22.5529 150.927 1011.4 -22.685 151.071 1011.44 
-22.8168 151.215 1011.48 -22.9501 151.359 1011.53 -23.0866 151.501 1011.56 
-23.2273 151.642 1011.59 -23.3672 151.782 1011.62 -23.4978 151.927 1011.66 
-23.6146 152.079 1011.71 -23.7221 152.234 1011.78 -23.8262 152.389 1011.86 
-23.9329 152.541 1011.93 -24.0455 152.688 1012.01 -24.1635 152.83 1012.09 
-24.2859 152.968 1012.17 -24.4118 153.103 1012.25 -24.5403 153.235 1012.32 
-24.6705 153.365 1012.4 -24.8015 153.494 1012.48 -24.9323 153.622 1012.56 
-25.0621 153.751 1012.65 -25.1899 153.88 1012.73 -25.3147 154.011 1012.81 
-25.4358 154.144 1012.9 -25.5521 154.281 1012.99 -25.6637 154.42 1013.08 
-25.7716 154.561 1013.17 -25.8774 154.704 1013.26 -25.9822 154.846 1013.36 
-26.0874 154.987 1013.45 -26.1945 155.126 1013.55 -26.3045 155.262 1013.64 
-26.4178 155.394 1013.74 -26.5336 155.524 1013.84 -26.6514 155.652 1013.94 
-26.7706 155.778 1014.04 -26.8907 155.904 1014.13 -27.0111 156.03 1014.23 
-27.1311 156.157 1014.33 -27.2502 156.286 1014.43 -27.3678 156.416 1014.52 
-27.4834 156.549 1014.62 -27.5963 156.686 1014.71 -27.706 156.826 1014.81 
-27.8165 156.961 1014.91 -27.9357 157.055 1015.04 -28.0437 157.136 1015.18 
-28.1457 157.212 1015.34 -28.248 157.288 1015.49 -28.3549 157.369 1015.64 
-28.4654 157.454 1015.79 -28.5771 157.543 1015.93 -28.6878 157.633 1016.07 
-28.7954 157.724 1016.22 -28.8976 157.814 1016.36 -28.992 157.9 1016.52 
-29.0766 157.983 1016.67 -29.1499 158.06 1016.84 -29.2158 158.132 1017.02 
-29.2798 158.198 1017.19 -29.3473 158.26 1017.37 -29.4238 158.318 1017.55 
-29.5127 158.371 1017.72 -29.6111 158.421 1017.89 -29.7147 158.47 1018.06 
-29.8194 158.517 1018.22 -29.9211 158.564 1018.39 -30.0155 158.612 1018.56 
-30.0986 158.663 1018.73 -30.1662 158.716 1018.91 -30.2169 158.773 1019.09 
-30.2634 158.829 1019.28 -30.3171 158.88 1019.47 -30.3779 158.928 1019.65 
-30.4445 158.973 1019.84 -30.5157 159.017 1020.02 -30.5901 159.06 1020.2 
-30.6664 159.103 1020.38 -30.7431 159.147 1020.56 -30.8183 159.194 1020.74 
-30.8906 159.244 1020.92 -30.9625 159.296 1021.1 -31.0383 159.347 1021.27 
-31.1224 159.394 1021.45 -31.2167 159.437 1021.62 -31.3032 159.483 1021.8 
-31.3614 159.541 1021.98 -31.415 159.595 1022.16 -31.47 159.647 1022.35 
-31.5263 159.7 1022.53 -31.5839 159.758 1022.72 -31.6385 159.825 1022.9 
-31.676 159.9 1023.08 -31.7101 159.975 1023.26 -31.7558 160.042 1023.44 
-31.812 160.103 1023.62 -31.8777 160.159 1023.81 -31.9516 160.209 1023.99 
-32.027 160.259 1024.17 -32.0919 160.314 1024.35 -32.1343 160.382 1024.53 
-32.1644 160.448 1024.72 -32.1972 160.514 1024.91 -32.232 160.584 1025.09 
-32.2681 160.663 1025.27 -32.305 160.755 1025.45 -32.342 160.862 1025.61 
-32.3844 160.986 1025.76 -32.4485 161.114 1025.9 -32.5443 161.241 1026.02 
-32.6517 161.371 1026.13 -32.759 161.503 1026.24 -32.861 161.634 1026.35 
-32.9577 161.764 1026.46 -33.05 161.894 1026.59 -33.1386 162.024 1026.71 
-33.2245 162.155 1026.83 -33.3087 162.289 1026.96 -33.3919 162.424 1027.08 
-33.4753 162.563 1027.2 -33.5595 162.706 1027.31 -33.6441 162.854 1027.41 
-33.7272 163.008 1027.51 -33.8111 163.164 1027.61 -33.8994 163.314 1027.7 
-33.9909 163.46 1027.8 -34.0843 163.605 1027.91 -34.1783 163.748 1028.01 
-34.2714 163.893 1028.11 -34.3602 164.044 1028.21 -34.4454 164.204 1028.3 
-34.5452 164.36 1028.37 -34.6608 164.504 1028.45 -34.7649 164.651 1028.54 
-34.856 164.8 1028.63 -34.9405 164.955 1028.73 -35.0308 165.125 1028.78 
-35.1138 165.303 1028.83 -35.1812 165.484 1028.88 -35.2368 165.668 1028.94 
-35.286 165.852 1029 -35.3331 166.037 1029.06 -35.3728 166.222 1029.13 
-35.4265 166.406 1029.18 -35.4832 166.591 1029.23 -35.533 166.776 1029.29 
-35.5831 166.959 1029.35 -35.6405 167.14 1029.42 -35.7067 167.318 1029.48 
-35.779 167.495 1029.54 -35.8545 167.671 1029.6 -35.9302 167.848 1029.66 
-36.0034 168.026 1029.71 -36.071 168.207 1029.76 -36.1302 168.392 1029.81 
-36.1807 168.579 1029.86 -36.2306 168.764 1029.92 -36.2799 168.948 1029.98 
-36.3189 169.138 1030.02 -36.353 169.333 1030.06 -36.3903 169.528 1030.08 
-36.4386 169.719 1030.12 -36.4987 169.907 1030.15 -36.5644 170.092 1030.19 
-36.6292 170.279 1030.22 -36.6882 170.47 1030.24 -36.7455 170.662 1030.24 
-36.8041 170.854 1030.23 -36.8638 171.046 1030.22 -36.9243 171.237 1030.21 
-36.9852 171.427 1030.21 -37.0461 171.615 1030.22 -37.1068 171.802 1030.26 
-37.167 171.986 1030.31 -37.2265 172.17 1030.37 -37.2849 172.354 1030.43 
-37.342 172.539 1030.48 -37.3977 172.726 1030.53 -37.4516 172.915 1030.55 
-37.5044 173.108 1030.55 -37.5608 173.3 1030.54 -37.6239 173.491 1030.54 
-37.6937 173.678 1030.54 -37.7698 173.864 1030.55 -37.852 174.046 1030.55 
-37.9401 174.226 1030.56 -38.0337 174.403 1030.57 -38.1318 174.577 1030.58 
-38.2328 174.749 1030.58 -38.335 174.921 1030.59 -38.437 175.093 1030.59 
-38.5371 175.267 1030.58 -38.6343 175.442 1030.57 -38.7279 175.618 1030.55 
-38.8173 175.795 1030.52 -38.9018 175.973 1030.49 -38.981 176.152 1030.44 
-39.0558 176.331 1030.39 -39.1276 176.512 1030.35 -39.1976 176.695 1030.3 
-39.2673 176.879 1030.27 -39.3379 177.066 1030.25 -39.4104 177.256 1030.25 
-39.485 177.445 1030.26 -39.5615 177.633 1030.27 -39.6396 177.818 1030.27 
-39.7191 177.996 1030.24 -39.7996 178.166 1030.18 -39.8733 178.336 1030.1 
-39.9371 178.512 1030.01 -39.9956 178.691 1029.92 -40.0533 178.871 1029.84 
-40.1149 179.051 1029.78 -40.185 179.229 1029.73 -40.2684 179.402 1029.71 
-40.3686 179.569 1029.72 -40.4814 179.731 1029.74 -40.5988 179.894 1029.78 
-40.713 180.059 1029.8 -40.8204 180.23 1029.81 -40.922 180.403 1029.8 
-41.0186 180.578 1029.78 -41.1113 180.753 1029.75 -41.201 180.926 1029.7 
-41.2892 181.098 1029.65 -41.3754 181.27 1029.6 -41.4376 181.449 1029.54 
-41.4786 181.634 1029.47 -41.5111 181.824 1029.41 -41.548 182.013 1029.35 
-41.6005 182.2 1029.31 -41.6707 182.384 1029.27 -41.7565 182.563 1029.24 
-41.8554 182.736 1029.21 -41.9651 182.903 1029.17 -42.0829 183.063 1029.13 
-42.2009 183.219 1029.08 -42.3084 183.372 1029.01 -42.3945 183.528 1028.92 
-42.4777 183.685 1028.84 -42.578 183.843 1028.78 -42.6916 184.003 1028.74 
-42.8144 184.163 1028.72 -42.9426 184.325 1028.71 -43.0719 184.489 1028.71 
-43.1987 184.655 1028.7 -43.3206 184.823 1028.68 -43.4366 184.991 1028.65 
-43.5459 185.158 1028.62 -43.6475 185.324 1028.56 -43.7406 185.488 1028.49 
-43.8243 185.648 1028.4 -43.8976 185.803 1028.29 -43.9598 185.953 1028.15 
-44.0315 186.12 1028.07 -44.1054 186.3 1028.03 -44.1299 186.499 1028.03 
-44.1774 186.686 1028.01 -44.248 186.86 1027.98 -44.3356 187.026 1027.92 
-44.4338 187.186 1027.85 -44.5363 187.344 1027.76 -44.6368 187.502 1027.67 
-44.7289 187.664 1027.56 -44.8064 187.833 1027.46 -44.8633 188.012 1027.35 
-44.9059 188.198 1027.24 -44.9523 188.379 1027.15 -45.0217 188.546 1027.07 
-45.1329 188.689 1027.01 -45.2816 188.817 1026.98 -45.387 188.99 1026.97 
-45.4745 189.169 1026.99 -45.5607 189.346 1026.96 -45.65 189.539 1026.98 
-45.7456 189.742 1027.07 -45.8418 189.944 1027.21 -45.933 190.135 1027.37 
-46.0137 190.303 1027.54 -46.0783 190.437 1027.69 -46.1211 190.525 1027.8 
-46.1366 190.557 1027.84 
LINES 1 473
472 0 1 2 3 4 5 6 7 8 9 10 11 12 13 14 15 16 17 18 19 20 21 22 23 24 25 26 27 28 29 30 31 32 33 34 35 36 37 38 39 40 41 42 43 44 45 46 47 48 49 50 51 52 53 54 55 56 57 58 59 60 61 62 63 64 65 66 67 68 69 70 71 72 73 74 75 76 77 78 79 80 81 82 83 84 85 86 87 88 89 90 91 92 93 94 95 96 97 98 99 100 101 102 103 104 105 106 107 108 109 110 111 112 113 114 115 116 117 118 119 120 121 122 123 124 125 126 127 128 129 130 131 132 133 134 135 136 137 138 139 140 141 142 143 144 145 146 147 148 149 150 151 152 153 154 155 156 157 158 159 160 161 162 163 164 165 166 167 168 169 170 171 172 173 174 175 176 177 178 179 180 181 182 183 184 185 186 187 188 189 190 191 192 193 194 195 196 197 198 199 200 201 202 203 204 205 206 207 208 209 210 211 212 213 214 215 216 217 218 219 220 221 222 223 224 225 226 227 228 229 230 231 232 233 234 235 236 237 238 239 240 241 242 243 244 245 246 247 248 249 250 251 252 253 254 255 256 257 258 259 260 261 262 263 264 265 266 267 268 269 270 271 272 273 274 275 276 277 278 279 280 281 282 283 284 285 286 287 288 289 290 291 292 293 294 295 296 297 298 299 300 301 302 303 304 305 306 307 308 309 310 311 312 313 314 315 316 317 318 319 320 321 322 323 324 325 326 327 328 329 330 331 332 333 334 335 336 337 338 339 340 341 342 343 344 345 346 347 348 349 350 351 352 353 354 355 356 357 358 359 360 361 362 363 364 365 366 367 368 369 370 371 372 373 374 375 376 377 378 379 380 381 382 383 384 385 386 387 388 389 390 391 392 393 394 395 396 397 398 399 400 401 402 403 404 405 406 407 408 409 410 411 412 413 414 415 416 417 418 419 420 421 422 423 424 425 426 427 428 429 430 431 432 433 434 435 436 437 438 439 440 441 442 443 444 445 446 447 448 449 450 451 452 453 454 455 456 457 458 459 460 461 462 463 464 465 466 467 468 469 470 471 

POINT_DATA 472
TEXTURE_COORDINATES TCoords 2 float
0 0 0.00212314 0 0.00424628 0 0.00636943 0 0.00849257 
0 0.0106157 0 0.0127389 0 0.014862 0 0.0169851 0 
0.0191083 0 0.0212314 0 0.0233546 0 0.0254777 0 0.0276008 
0 0.029724 0 0.0318471 0 0.0339703 0 0.0360934 0 
0.0382166 0 0.0403397 0 0.0424628 0 0.044586 0 0.0467091 
0 0.0488323 0 0.0509554 0 0.0530786 0 0.0552017 0 
0.0573248 0 0.059448 0 0.0615711 0 0.0636943 0 0.0658174 
0 0.0679406 0 0.0700637 0 0.0721868 0 0.07431 0 
0.0764331 0 0.0785563 0 0.0806794 0 0.0828025 0 0.0849257 
0 0.0870488 0 0.089172 0 0.0912951 0 0.0934183 0 
0.0955414 0 0.0976645 0 0.0997877 0 0.101911 0 0.104034 
0 0.106157 0 0.10828 0 0.110403 0 0.112527 0 
0.11465 0 0.116773 0 0.118896 0 0.121019 0 0.123142 
0 0.125265 0 0.127389 0 0.129512 0 0.131635 0 
0.133758 0 0.135881 0 0.138004 0 0.140127 0 0.142251 
0 0.144374 0 0.146497 0 0.14862 0 0.150743 0 
0.152866 0 0.154989 0 0.157113 0 0.159236 0 0.161359 
0 0.163482 0 0.165605 0 0.167728 0 0.169851 0 
0.171975 0 0.174098 0 0.176221 0 0.178344 0 0.180467 
0 0.18259 0 0.184713 0 0.186837 0 0.18896 0 
0.191083 0 0.193206 0 0.195329 0 0.197452 0 0.199575 
0 0.201699 0 0.203822 0 0.205945 0 0.208068 0 
0.210191 0 0.212314 0 0.214437 0 0.216561 0 0.218684 
0 0.220807 0 0.22293 0 0.225053 0 0.227176 0 
0.229299 0 0.231422 0 0.233546 0 0.235669 0 0.237792 
0 0.239915 0 0.242038 0 0.244161 0 0.246284 0 
0.248408 0 0.250531 0 0.252654 0 0.254777 0 0.2569 
0 0.259023 0 0.261146 0 0.26327 0 0.265393 0 
0.267516 0 0.269639 0 0.271762 0 0.273885 0 0.276008 
0 0.278132 0 0.280255 0 0.282378 0 0.284501 0 
0.286624 0 0.288747 0 0.29087 0 0.292994 0 0.295117 
0 0.29724 0 0.299363 0 0.301486 0 0.303609 0 
0.305732 0 0.307856 0 0.309979 0 0.312102 0 0.314225 
0 0.316348 0 0.318471 0 0.320594 0 0.322718 0 
0.324841 0 0.326964 0 0.329087 0 0.33121 0 0.333333 
0 0.335456 0 0.33758 0 0.339703 0 0.341826 0 
0.343949 0 0.346072 0 0.348195 0 0.350318 0 0.352442 
0 0.354565 0 0.356688 0 0.358811 0 0.360934 0 
0.363057 0 0.36518 0 0.367304 0 0.369427 0 0.37155 
0 0.373673 0 0.375796 0 0.377919 0 0.380042 0 
0.382166 0 0.384289 0 0.386412 0 0.388535 0 0.390658 
0 0.392781 0 0.394904 0 0.397028 0 0.399151 0 
0.401274 0 0.403397 0 0.40552 0 0.407643 0 0.409766 
0 0.41189 0 0.414013 0 0.416136 0 0.418259 0 
0.420382 0 0.422505 0 0.424628 0 0.426752 0 0.428875 
0 0.430998 0 0.433121 0 0.435244 0 0.437367 0 
0.43949 0 0.441614 0 0.443737 0 0.44586 0 0.447983 
0 0.450106 0 0.452229 0 0.454352 0 0.456476 0 
0.458599 0 0.460722 0 0.462845 0 0.464968 0 0.467091 
0 0.469214 0 0.471338 0 0.473461 0 0.475584 0 
0.477707 0 0.47983 0 0.481953 0 0.484076 0 0.4862 
0 0.488323 0 0.490446 0 0.492569 0 0.494692 0 
0.496815 0 0.498938 0 0.501062 0 0.503185 0 0.505308 
0 0.507431 0 0.509554 0 0.511677 0 0.5138 0 
0.515924 0 0.518047 0 0.52017 0 0.522293 0 0.524416 
0 0.526539 0 0.528662 0 0.530786 0 0.532909 0 
0.535032 0 0.537155 0 0.539278 0 0.541401 0 0.543524 
0 0.545648 0 0.547771 0 0.549894 0 0.552017 0 
0.55414 0 0.556263 0 0.558386 0 0.56051 0 0.562633 
0 0.564756 0 0.566879 0 0.569002 0 0.571125 0 
0.573248 0 0.575372 0 0.577495 0 0.579618 0 0.581741 
0 0.583864 0 0.585987 0 0.58811 0 0.590234 0 
0.592357 0 0.59448 0 0.596603 0 0.598726 0 0.600849 
0 0.602972 0 0.605096 0 0.607219 0 0.609342 0 
0.611465 0 0.613588 0 0.615711 0 0.617834 0 0.619958 
0 0.622081 0 0.624204 0 0.626327 0 0.62845 0 
0.630573 0 0.632696 0 0.63482 0 0.636943 0 0.639066 
0 0.641189 0 0.643312 0 0.645435 0 0.647558 0 
0.649682 0 0.651805 0 0.653928 0 0.656051 0 0.658174 
0 0.660297 0 0.66242 0 0.664544 0 0.666667 0 
0.66879 0 0.670913 0 0.673036 0 0.675159 0 0.677282 
0 0.679406 0 0.681529 0 0.683652 0 0.685775 0 
0.687898 0 0.690021 0 0.692144 0 0.694268 0 0.696391 
0 0.698514 0 0.700637 0 0.70276 0 0.704883 0 
0.707006 0 0.70913 0 0.711253 0 0.713376 0 0.715499 
0 0.717622 0 0.719745 0 0.721868 0 0.723992 0 
0.726115 0 0.728238 0 0.730361 0 0.732484 0 0.734607 
0 0.73673 0 0.738854 0 0.740977 0 0.7431 0 
0.745223 0 0.747346 0 0.749469 0 0.751592 0 0.753716 
0 0.755839 0 0.757962 0 0.760085 0 0.762208 0 
0.764331 0 0.766454 0 0.768578 0 0.770701 0 0.772824 
0 0.774947 0 0.77707 0 0.779193 0 0.781316 0 
0.78344 0 0.785563 0 0.787686 0 0.789809 0 0.791932 
0 0.794055 0 0.796178 0 0.798301 0 0.800425 0 
0.802548 0 0.804671 0 0.806794 0 0.808917 0 0.81104 
0 0.813163 0 0.815287 0 0.81741 0 0.819533 0 
0.821656 0 0.823779 0 0.825902 0 0.828025 0 0.830149 
0 0.832272 0 0.834395 0 0.836518 0 0.838641 0 
0.840764 0 0.842887 0 0.845011 0 0.847134 0 0.849257 
0 0.85138 0 0.853503 0 0.855626 0 0.857749 0 
0.859873 0 0.861996 0 0.864119 0 0.866242 0 0.868365 
0 0.870488 0 0.872611 0 0.874735 0 0.876858 0 
0.878981 0 0.881104 0 0.883227 0 0.88535 0 0.887473 
0 0.889597 0 0.89172 0 0.893843 0 0.895966 0 
0.898089 0 0.900212 0 0.902335 0 0.904459 0 0.906582 
0 0.908705 0 0.910828 0 0.912951 0 0.915074 0 
0.917197 0 0.919321 0 0.921444 0 0.923567 0 0.92569 
0 0.927813 0 0.929936 0 0.932059 0 0.934183 0 
0.936306 0 0.938429 0 0.940552 0 0.942675 0 0.944798 
0 0.946921 0 0.949045 0 0.951168 0 0.953291 0 
0.955414 0 0.957537 0 0.95966 0 0.961783 0 0.963907 
0 0.96603 0 0.968153 0 0.970276 0 0.972399 0 
0.974522 0 0.976645 0 0.978769 0 0.980892 0 0.983015 
0 0.985138 0 0.987261 0 0.989384 0 0.991507 0 
0.993631 0 0.995754 0 0.997877 0 1 0 
FIELD FieldData 1
MaximumInscribedSphereRadius 1 472 double
18.2072 18.2072 18.2072 18.2072 18.2072 18.2072 18.2072 18.2072 18.2072 
18.2072 18.2072 18.2072 18.2072 18.2072 18.2072 18.2072 18.2072 18.2072 
18.2072 18.2072 18.2072 18.2072 18.2072 18.2072 18.2072 18.2072 18.2072 
18.2072 18.2072 18.2072 18.2072 18.2072 18.2072 18.2072 18.2072 18.2072 
18.2072 18.2072 18.2072 18.2072 18.2072 18.2072 18.2072 18.2072 18.2072 
18.2072 18.2072 18.2072 18.2072 18.2072 18.2072 18.2072 18.2072 18.2072 
18.2072 18.2072 18.2072 18.2072 18.2072 18.2072 18.2072 18.2072 18.2072 
18.2072 18.2072 18.2072 18.2072 18.2072 18.2072 18.2072 18.2072 18.2072 
18.2072 18.2072 18.2072 18.2072 18.2072 18.2072 18.2072 18.2072 18.2072 
18.2072 18.2072 18.2072 18.2072 18.2072 18.2072 18.2072 18.2072 18.2072 
18.2072 18.2072 18.2218 18.2367 18.2517 18.2666 18.2816 18.2965 18.3115 
18.3264 18.3413 18.3563 18.3712 18.3874 18.4104 18.435 18.4596 18.4843 
18.5089 18.5335 18.5582 18.5828 18.6074 18.6321 18.6567 18.6813 18.706 
18.7283 18.7431 18.7581 18.773 18.788 18.803 18.8179 18.8329 18.8479 
18.8628 18.8778 18.8927 18.8738 18.8393 18.8048 18.7704 18.7359 18.7015 
18.667 18.6325 18.5965 18.5474 18.5065 18.4655 18.4245 18.3835 18.3408 
18.2737 18.2045 18.1367 18.0709 18.0078 17.9446 17.8836 17.8233 17.7623 
17.7013 17.6403 17.5793 17.5183 17.453 17.3876 17.3221 17.2567 17.1913 
17.1259 17.0604 16.9986 16.9387 16.8811 16.8235 16.7659 16.7031 16.638 
16.5655 16.4897 16.4122 16.3346 16.257 16.1795 16.1019 16.0243 15.9468 
15.8692 15.7916 15.7141 15.6365 15.5602 15.4973 15.4344 15.3715 15.3086 
15.2417 15.1729 15.1041 15.0353 14.9665 14.8977 14.842 14.7906 14.7359 
14.6643 14.5926 14.5209 14.4493 14.3779 14.3065 14.235 14.1636 14.0922 
14.0208 13.9494 13.878 13.8065 13.7351 13.6637 13.5923 13.525 13.4664 
13.4077 13.3491 13.2904 13.2318 13.1731 13.128 13.0895 13.051 13.0125 
12.974 12.9355 12.897 12.8585 12.82 12.7815 12.743 12.7045 12.666 
12.6245 12.5515 12.4698 12.3882 12.3073 12.2354 12.1635 12.0915 12.0196 
11.9476 11.8757 11.8037 11.7318 11.6427 11.5517 11.4607 11.3698 11.2804 
11.2058 11.1313 11.0568 10.9823 10.9078 10.8332 10.7587 10.6842 10.6079 
10.5322 10.4587 10.3852 10.3118 10.2383 10.1648 10.093 10.026 9.95893 
9.90051 9.84454 9.78857 9.73259 9.68603 9.6429 9.59625 9.55484 9.51343 
9.47202 9.43026 9.3864 9.34249 9.3113 9.28446 9.25762 9.23078 9.20722 
9.18673 9.16624 9.14575 9.12871 9.11169 9.09467 9.07765 9.06063 9.03337 
8.97255 8.91173 8.8218 8.73494 8.64851 8.57007 8.49163 8.41319 8.33475 
8.25631 8.17787 8.09943 8.02099 7.94423 7.86977 7.79287 7.71412 7.63669 
7.55927 7.48184 7.40441 7.32699 7.25152 7.17704 7.10256 7.02856 6.95568 
6.88281 6.80413 6.70985 6.61796 6.53333 6.4487 6.36406 6.28373 6.20491 
6.12567 6.04626 5.96685 5.88744 5.82292 5.76961 5.7163 5.66299 5.60969 
5.55638 5.50307 5.45163 5.42113 5.39079 5.35927 5.31783 5.27639 5.23495 
5.20304 5.18033 5.15762 5.13491 5.10767 5.08623 5.06958 5.05292 5.03627 
5.01961 5.00296 4.99366 4.98546 4.97727 4.96907 4.96088 4.95269 4.94449 
4.93069 4.91463 4.89635 4.87806 4.85978 4.84149 4.8232 4.78154 4.72613 
4.67072 4.61531 4.5599 4.50991 4.46299 4.41607 4.36915 4.32223 4.29366 
4.26568 4.2377 4.20972 4.18174 4.15376 4.15249 4.15135 4.15021 4.14907 
4.14793 4.14497 4.1399 4.13472 4.12953 4.12435 4.11917 4.11399 4.10881 
4.0682 4.01715 3.96609 3.91147 3.8534 3.79533 3.73726 3.67919 3.62137 
3.56372 3.51061 3.46752 3.42442 3.38133 3.33824 3.30555 3.27566 3.24576 
3.21587 3.18597 3.17327 3.16825 3.16324 3.15411 3.10242 3.04713 2.99184 
2.93654 2.88125 2.82596 2.79945 2.79626 2.79308 2.78989 2.7867 2.78351 
2.78033 2.77714 2.77395 2.73975 2.68352 2.62221 2.56665 2.51109 2.45552 
2.39996 2.3444 2.28884 2.23328 2.17772 2.12183 2.06558 2.00934 1.9531 
1.89686 1.8337 1.76653 1.69878 1.60563 1.60563 1.60563 1.60563 1.60563 
1.60563 1.60563 1.60563 1.60563 
