# vtk DataFile Version 5.1
vtk output
ASCII
DATASET POLYDATA
POINTS 396 float
5.26686 160.646 1013.69 5.26121 160.641 1013.69 5.24444 160.627 1013.68 
5.21686 160.603 1013.68 5.17876 160.57 1013.67 5.13045 160.528 1013.65 
5.0722 160.478 1013.64 5.00433 160.419 1013.62 4.92712 160.351 1013.6 
4.84088 160.276 1013.57 4.7459 160.192 1013.55 4.64247 160.101 1013.52 
4.5309 160.002 1013.49 4.41147 159.896 1013.45 4.28449 159.783 1013.42 
4.15026 159.663 1013.38 4.00906 159.536 1013.34 3.86119 159.403 1013.3 
3.70696 159.263 1013.26 3.54665 159.118 1013.21 3.38057 158.966 1013.17 
3.20901 158.809 1013.12 3.03226 158.646 1013.07 2.85063 158.478 1013.02 
2.6644 158.305 1012.96 2.47388 158.127 1012.91 2.27937 157.945 1012.86 
2.08115 157.758 1012.8 1.87952 157.567 1012.74 1.67478 157.371 1012.68 
1.46724 157.172 1012.62 1.25717 156.969 1012.56 1.04489 156.763 1012.5 
0.830678 156.553 1012.44 0.614841 156.341 1012.38 0.397673 156.126 1012.32 
0.179471 155.908 1012.25 -0.0394704 155.687 1012.19 -0.258854 155.465 1012.13 
-0.478383 155.24 1012.06 -0.697761 155.014 1012 -0.916693 154.785 1011.93 
-1.13488 154.556 1011.87 -1.35203 154.325 1011.8 -1.56784 154.094 1011.74 
-1.78202 153.861 1011.68 -1.99428 153.628 1011.61 -2.2043 153.395 1011.55 
-2.41181 153.161 1011.49 -2.6165 152.928 1011.42 -2.81807 152.694 1011.36 
-3.01624 152.462 1011.3 -3.21069 152.229 1011.24 -3.40115 151.998 1011.18 
-3.5873 151.767 1011.12 -3.76886 151.538 1011.06 -3.94553 151.311 1011.01 
-4.11701 151.085 1010.95 -4.283 150.86 1010.9 -4.44321 150.638 1010.85 
-4.59735 150.419 1010.79 -4.74511 150.201 1010.74 -4.8862 149.986 1010.69 
-5.02032 149.775 1010.65 -5.14718 149.566 1010.6 -5.26649 149.361 1010.56 
-5.37793 149.159 1010.52 -5.48123 148.96 1010.48 -5.57607 148.766 1010.44 
-5.66217 148.576 1010.4 -5.73923 148.39 1010.37 -5.80696 148.208 1010.34 
-5.86505 148.032 1010.31 -5.91321 147.86 1010.28 -5.95114 147.693 1010.25 
-5.97855 147.532 1010.23 -5.99514 147.376 1010.21 -6.00062 147.226 1010.19 
-5.99468 147.081 1010.18 -5.97704 146.943 1010.17 -5.94739 146.812 1010.16 
-5.90544 146.687 1010.15 -5.85089 146.568 1010.15 -5.78345 146.457 1010.15 
-5.70282 146.352 1010.15 -5.6087 146.255 1010.16 -5.5008 146.166 1010.17 
-5.37883 146.085 1010.18 -5.24247 146.011 1010.2 -5.09145 145.945 1010.22 
-4.92545 145.888 1010.25 -4.7442 145.84 1010.27 -4.55045 145.798 1010.3 
-4.35426 145.756 1010.33 -4.1596 145.711 1010.34 -3.96556 145.665 1010.35 
-3.77122 145.62 1010.37 -3.57647 145.574 1010.38 -3.38149 145.529 1010.39 
-3.18646 145.485 1010.41 -2.99156 145.44 1010.42 -2.79697 145.396 1010.44 
-2.60286 145.352 1010.47 -2.40941 145.308 1010.5 -2.21713 145.264 1010.53 
-2.02663 145.222 1010.58 -1.83323 145.191 1010.62 -1.63882 145.16 1010.65 
-1.4442 145.124 1010.67 -1.24941 145.085 1010.67 -1.05446 145.042 1010.66 
-0.859397 144.996 1010.64 -0.664238 144.948 1010.62 -0.469016 144.899 1010.59 
-0.273758 144.849 1010.57 -0.0784923 144.798 1010.54 0.116753 144.747 1010.52 
0.311948 144.697 1010.51 0.50705 144.647 1010.5 0.701998 144.599 1010.5 
0.89673 144.551 1010.5 1.09118 144.504 1010.5 1.2853 144.458 1010.5 
1.47901 144.411 1010.49 1.67228 144.366 1010.47 1.86516 144.32 1010.45 
2.05766 144.275 1010.43 2.24985 144.23 1010.4 2.44176 144.186 1010.36 
2.63342 144.142 1010.32 2.82489 144.099 1010.28 3.01619 144.056 1010.24 
3.20739 144.013 1010.19 3.3985 143.971 1010.14 3.58958 143.929 1010.09 
3.78067 143.888 1010.04 3.9718 143.848 1009.99 4.16302 143.807 1009.94 
4.35437 143.768 1009.89 4.5459 143.729 1009.85 4.73783 143.691 1009.8 
4.93152 143.659 1009.76 5.1271 143.633 1009.73 5.32265 143.604 1009.69 
5.51619 143.564 1009.66 5.70765 143.512 1009.63 5.89906 143.461 1009.6 
6.09139 143.415 1009.57 6.28305 143.369 1009.53 6.47327 143.321 1009.49 
6.6623 143.27 1009.44 6.85036 143.218 1009.4 7.03773 143.163 1009.35 
7.22465 143.108 1009.3 7.41136 143.051 1009.25 7.59813 142.994 1009.2 
7.78521 142.936 1009.16 7.97284 142.879 1009.12 8.16127 142.822 1009.08 
8.35077 142.766 1009.05 8.54158 142.711 1009.03 8.73496 142.66 1009.02 
8.93668 142.632 1009.03 9.13428 142.603 1009.06 9.31079 142.537 1009.1 
9.45988 142.422 1009.14 9.58882 142.271 1009.18 9.70576 142.101 1009.22 
9.81887 141.926 1009.25 9.93575 141.761 1009.29 10.0574 141.608 1009.33 
10.1804 141.458 1009.38 10.3026 141.307 1009.42 10.4242 141.154 1009.47 
10.5455 141 1009.51 10.6668 140.845 1009.55 10.7881 140.69 1009.59 
10.9094 140.536 1009.63 11.0307 140.381 1009.67 11.152 140.228 1009.71 
11.2733 140.074 1009.75 11.3947 139.921 1009.8 11.516 139.768 1009.85 
11.6373 139.615 1009.89 11.7587 139.461 1009.93 11.88 139.306 1009.97 
12.0017 139.15 1010 12.1248 138.996 1010.03 12.2506 138.843 1010.07 
12.379 138.692 1010.1 12.5085 138.543 1010.14 12.6379 138.394 1010.18 
12.7658 138.244 1010.22 12.8909 138.093 1010.26 13.0117 137.939 1010.3 
13.127 137.782 1010.35 13.2353 137.62 1010.39 13.3353 137.452 1010.44 
13.4282 137.279 1010.49 13.5195 137.105 1010.53 13.6152 136.931 1010.54 
13.7167 136.76 1010.53 13.8199 136.588 1010.51 13.9199 136.415 1010.48 
14.0123 136.238 1010.46 14.0963 136.057 1010.45 14.1741 135.872 1010.46 
14.2478 135.686 1010.46 14.3196 135.498 1010.47 14.3918 135.31 1010.48 
14.4665 135.124 1010.49 14.5461 134.94 1010.48 14.6338 134.76 1010.48 
14.7285 134.584 1010.47 14.8275 134.41 1010.46 14.928 134.235 1010.45 
15.025 134.059 1010.44 15.1124 133.879 1010.44 15.1842 133.693 1010.44 
15.2412 133.502 1010.46 15.2956 133.31 1010.49 15.3603 133.122 1010.52 
15.4364 132.939 1010.55 15.5053 132.754 1010.58 15.5688 132.567 1010.62 
15.6363 132.381 1010.65 15.7174 132.199 1010.67 15.8137 132.024 1010.67 
15.9041 131.845 1010.68 15.986 131.663 1010.7 16.0793 131.486 1010.69 
16.1798 131.312 1010.69 16.2814 131.139 1010.68 16.3784 130.964 1010.7 
16.472 130.788 1010.72 16.5645 130.613 1010.75 16.6545 130.44 1010.8 
16.7515 130.268 1010.83 16.8605 130.1 1010.85 16.9799 129.939 1010.85 
17.1034 129.782 1010.85 17.223 129.621 1010.85 17.3352 129.455 1010.86 
17.4486 129.29 1010.87 17.5582 129.123 1010.89 17.677 128.963 1010.9 
17.8061 128.81 1010.9 17.938 128.658 1010.89 18.0658 128.503 1010.88 
18.1895 128.346 1010.88 18.3132 128.188 1010.87 18.4412 128.034 1010.87 
18.5766 127.886 1010.87 18.7176 127.744 1010.88 18.8614 127.606 1010.9 
19.0068 127.471 1010.93 19.1545 127.339 1010.96 19.3053 127.211 1011 
19.4601 127.088 1011.03 19.6195 126.971 1011.06 19.7845 126.862 1011.1 
19.9553 126.761 1011.13 20.1271 126.663 1011.17 20.292 126.558 1011.21 
20.4423 126.437 1011.26 20.5809 126.302 1011.31 20.7193 126.166 1011.37 
20.8681 126.04 1011.42 21.0259 125.922 1011.46 21.1835 125.801 1011.49 
21.3328 125.668 1011.49 21.4779 125.531 1011.46 21.632 125.409 1011.43 
21.7998 125.308 1011.38 21.9712 125.213 1011.34 22.1379 125.11 1011.3 
22.3007 124.997 1011.26 22.4684 124.891 1011.24 22.6597 124.832 1011.22 
22.8546 124.782 1011.21 23.0401 124.711 1011.19 23.2207 124.632 1011.15 
23.4108 124.577 1011.12 23.5894 124.494 1011.1 23.7562 124.381 1011.08 
23.9202 124.265 1011.06 24.0919 124.167 1011.03 24.2765 124.091 1011.01 
24.4613 124.014 1011 24.6404 123.924 1011 24.8229 123.842 1010.99 
25.01 123.771 1010.97 25.1998 123.707 1010.96 25.3902 123.648 1010.93 
25.5792 123.587 1010.91 25.7646 123.516 1010.88 25.9466 123.434 1010.85 
26.1286 123.352 1010.83 26.314 123.282 1010.8 26.506 123.234 1010.78 
26.7015 123.199 1010.75 26.8933 123.154 1010.71 27.0777 123.087 1010.67 
27.2595 123.016 1010.62 27.444 122.96 1010.57 27.6329 122.919 1010.52 
27.8265 122.891 1010.48 28.0237 122.873 1010.45 28.2236 122.862 1010.44 
28.4252 122.854 1010.42 28.6275 122.848 1010.41 28.8294 122.841 1010.4 
29.03 122.829 1010.38 29.2282 122.809 1010.36 29.4231 122.78 1010.32 
29.6138 122.738 1010.28 29.802 122.695 1010.22 29.9915 122.671 1010.16 
30.1846 122.678 1010.12 30.3801 122.706 1010.08 30.5756 122.742 1010.03 
30.7697 122.776 1009.99 30.9624 122.808 1009.94 31.1533 122.835 1009.89 
31.3425 122.858 1009.83 31.5297 122.876 1009.76 31.7144 122.886 1009.68 
31.893 122.882 1009.59 32.0733 122.873 1009.51 32.2621 122.872 1009.44 
32.4571 122.876 1009.4 32.6549 122.886 1009.36 32.8521 122.899 1009.31 
33.0455 122.914 1009.26 33.232 122.93 1009.19 33.4134 122.941 1009.11 
33.594 122.944 1009.02 33.7772 122.934 1008.94 33.9627 122.919 1008.86 
34.1487 122.911 1008.78 34.3331 122.92 1008.71 34.5157 122.952 1008.63 
34.7021 122.989 1008.57 34.8926 123.026 1008.52 35.0855 123.06 1008.48 
35.2795 123.089 1008.43 35.4731 123.112 1008.38 35.6657 123.129 1008.33 
35.8569 123.142 1008.26 36.0463 123.153 1008.2 36.2336 123.165 1008.12 
36.4183 123.178 1008.04 36.6002 123.196 1007.96 36.7788 123.219 1007.87 
36.9537 123.251 1007.78 37.1259 123.289 1007.69 37.2984 123.327 1007.59 
37.4739 123.359 1007.49 37.6536 123.382 1007.4 37.8387 123.393 1007.33 
38.0304 123.389 1007.27 38.2235 123.385 1007.22 38.4081 123.414 1007.15 
38.5882 123.46 1007.07 38.7684 123.508 1006.99 38.9533 123.541 1006.92 
39.1469 123.546 1006.87 39.3427 123.518 1006.84 39.5164 123.418 1006.86 
39.6741 123.301 1006.91 39.8249 123.179 1006.96 39.9578 123.033 1006.98 
40.0794 122.872 1006.98 40.2068 122.717 1006.99 40.3434 122.572 1007.01 
40.4855 122.433 1007.04 40.6295 122.296 1007.06 40.7721 122.155 1007.08 
40.921 122.021 1007.08 41.0893 121.912 1007.1 41.2636 121.817 1007.14 
41.4244 121.715 1007.21 41.5582 121.594 1007.29 41.6793 121.462 1007.38 
41.811 121.336 1007.47 41.9627 121.224 1007.54 42.1282 121.129 1007.6 
42.3007 121.051 1007.67 42.4639 120.979 1007.77 42.5791 120.871 1007.92 
42.6504 120.735 1008.13 42.6874 120.588 1008.35 42.6997 120.446 1008.57 
42.6967 120.324 1008.76 42.6879 120.24 1008.89 42.6829 120.208 1008.94 

LINES 2 396
OFFSETS vtktypeint64
0 396 
CONNECTIVITY vtktypeint64
0 1 2 3 4 5 6 7 8 
9 10 11 12 13 14 15 16 17 
18 19 20 21 22 23 24 25 26 
27 28 29 30 31 32 33 34 35 
36 37 38 39 40 41 42 43 44 
45 46 47 48 49 50 51 52 53 
54 55 56 57 58 59 60 61 62 
63 64 65 66 67 68 69 70 71 
72 73 74 75 76 77 78 79 80 
81 82 83 84 85 86 87 88 89 
90 91 92 93 94 95 96 97 98 
99 100 101 102 103 104 105 106 107 
108 109 110 111 112 113 114 115 116 
117 118 119 120 121 122 123 124 125 
126 127 128 129 130 131 132 133 134 
135 136 137 138 139 140 141 142 143 
144 145 146 147 148 149 150 151 152 
153 154 155 156 157 158 159 160 161 
162 163 164 165 166 167 168 169 170 
171 172 173 174 175 176 177 178 179 
180 181 182 183 184 185 186 187 188 
189 190 191 192 193 194 195 196 197 
198 199 200 201 202 203 204 205 206 
207 208 209 210 211 212 213 214 215 
216 217 218 219 220 221 222 223 224 
225 226 227 228 229 230 231 232 233 
234 235 236 237 238 239 240 241 242 
243 244 245 246 247 248 249 250 251 
252 253 254 255 256 257 258 259 260 
261 262 263 264 265 266 267 268 269 
270 271 272 273 274 275 276 277 278 
279 280 281 282 283 284 285 286 287 
288 289 290 291 292 293 294 295 296 
297 298 299 300 301 302 303 304 305 
306 307 308 309 310 311 312 313 314 
315 316 317 318 319 320 321 322 323 
324 325 326 327 328 329 330 331 332 
333 334 335 336 337 338 339 340 341 
342 343 344 345 346 347 348 349 350 
351 352 353 354 355 356 357 358 359 
360 361 362 363 364 365 366 367 368 
369 370 371 372 373 374 375 376 377 
378 379 380 381 382 383 384 385 386 
387 388 389 390 391 392 393 394 395 

POINT_DATA 396
TEXTURE_COORDINATES TCoords 2 float
0 0 0.00253165 0 0.00506329 0 0.00759494 0 0.0101266 
0 0.0126582 0 0.0151899 0 0.0177215 0 0.0202532 0 
0.0227848 0 0.0253165 0 0.0278481 0 0.0303797 0 0.0329114 
0 0.035443 0 0.0379747 0 0.0405063 0 0.043038 0 
0.0455696 0 0.0481013 0 0.0506329 0 0.0531646 0 0.0556962 
0 0.0582278 0 0.0607595 0 0.0632911 0 0.0658228 0 
0.0683544 0 0.0708861 0 0.0734177 0 0.0759494 0 0.078481 
0 0.0810127 0 0.0835443 0 0.0860759 0 0.0886076 0 
0.0911392 0 0.0936709 0 0.0962025 0 0.0987342 0 0.101266 
0 0.103797 0 0.106329 0 0.108861 0 0.111392 0 
0.113924 0 0.116456 0 0.118987 0 0.121519 0 0.124051 
0 0.126582 0 0.129114 0 0.131646 0 0.134177 0 
0.136709 0 0.139241 0 0.141772 0 0.144304 0 0.146835 
0 0.149367 0 0.151899 0 0.15443 0 0.156962 0 
0.159494 0 0.162025 0 0.164557 0 0.167089 0 0.16962 
0 0.172152 0 0.174684 0 0.177215 0 0.179747 0 
0.182278 0 0.18481 0 0.187342 0 0.189873 0 0.192405 
0 0.194937 0 0.197468 0 0.2 0 0.202532 0 
0.205063 0 0.207595 0 0.210127 0 0.212658 0 0.21519 
0 0.217722 0 0.220253 0 0.222785 0 0.225316 0 
0.227848 0 0.23038 0 0.232911 0 0.235443 0 0.237975 
0 0.240506 0 0.243038 0 0.24557 0 0.248101 0 
0.250633 0 0.253165 0 0.255696 0 0.258228 0 0.26076 
0 0.263291 0 0.265823 0 0.268354 0 0.270886 0 
0.273418 0 0.275949 0 0.278481 0 0.281013 0 0.283544 
0 0.286076 0 0.288608 0 0.291139 0 0.293671 0 
0.296203 0 0.298734 0 0.301266 0 0.303797 0 0.306329 
0 0.308861 0 0.311392 0 0.313924 0 0.316456 0 
0.318987 0 0.321519 0 0.324051 0 0.326582 0 0.329114 
0 0.331646 0 0.334177 0 0.336709 0 0.339241 0 
0.341772 0 0.344304 0 0.346835 0 0.349367 0 0.351899 
0 0.35443 0 0.356962 0 0.359494 0 0.362025 0 
0.364557 0 0.367089 0 0.36962 0 0.372152 0 0.374684 
0 0.377215 0 0.379747 0 0.382278 0 0.38481 0 
0.387342 0 0.389873 0 0.392405 0 0.394937 0 0.397468 
0 0.4 0 0.402532 0 0.405063 0 0.407595 0 
0.410127 0 0.412658 0 0.41519 0 0.417722 0 0.420253 
0 0.422785 0 0.425316 0 0.427848 0 0.43038 0 
0.432911 0 0.435443 0 0.437975 0 0.440506 0 0.443038 
0 0.44557 0 0.448101 0 0.450633 0 0.453165 0 
0.455696 0 0.458228 0 0.460759 0 0.463291 0 0.465823 
0 0.468354 0 0.470886 0 0.473418 0 0.475949 0 
0.478481 0 0.481013 0 0.483544 0 0.486076 0 0.488608 
0 0.491139 0 0.493671 0 0.496203 0 0.498734 0 
0.501266 0 0.503797 0 0.506329 0 0.508861 0 0.511392 
0 0.513924 0 0.516456 0 0.518987 0 0.521519 0 
0.524051 0 0.526582 0 0.529114 0 0.531646 0 0.534177 
0 0.536709 0 0.53924 0 0.541772 0 0.544304 0 
0.546835 0 0.549367 0 0.551899 0 0.55443 0 0.556962 
0 0.559494 0 0.562025 0 0.564557 0 0.567089 0 
0.56962 0 0.572152 0 0.574684 0 0.577215 0 0.579747 
0 0.582278 0 0.58481 0 0.587342 0 0.589873 0 
0.592405 0 0.594937 0 0.597468 0 0.6 0 0.602532 
0 0.605063 0 0.607595 0 0.610127 0 0.612658 0 
0.61519 0 0.617721 0 0.620253 0 0.622785 0 0.625316 
0 0.627848 0 0.63038 0 0.632911 0 0.635443 0 
0.637975 0 0.640506 0 0.643038 0 0.64557 0 0.648101 
0 0.650633 0 0.653165 0 0.655696 0 0.658228 0 
0.66076 0 0.663291 0 0.665823 0 0.668354 0 0.670886 
0 0.673418 0 0.675949 0 0.678481 0 0.681013 0 
0.683544 0 0.686076 0 0.688608 0 0.691139 0 0.693671 
0 0.696203 0 0.698734 0 0.701266 0 0.703797 0 
0.706329 0 0.708861 0 0.711392 0 0.713924 0 0.716456 
0 0.718987 0 0.721519 0 0.724051 0 0.726582 0 
0.729114 0 0.731646 0 0.734177 0 0.736709 0 0.739241 
0 0.741772 0 0.744304 0 0.746835 0 0.749367 0 
0.751899 0 0.75443 0 0.756962 0 0.759494 0 0.762025 
0 0.764557 0 0.767089 0 0.76962 0 0.772152 0 
0.774684 0 0.777215 0 0.779747 0 0.782278 0 0.78481 
0 0.787342 0 0.789873 0 0.792405 0 0.794937 0 
0.797468 0 0.8 0 0.802532 0 0.805063 0 0.807595 
0 0.810127 0 0.812658 0 0.81519 0 0.817722 0 
0.820253 0 0.822785 0 0.825316 0 0.827848 0 0.83038 
0 0.832911 0 0.835443 0 0.837975 0 0.840506 0 
0.843038 0 0.84557 0 0.848101 0 0.850633 0 0.853165 
0 0.855696 0 0.858228 0 0.860759 0 0.863291 0 
0.865823 0 0.868354 0 0.870886 0 0.873418 0 0.875949 
0 0.878481 0 0.881013 0 0.883544 0 0.886076 0 
0.888608 0 0.891139 0 0.893671 0 0.896203 0 0.898734 
0 0.901266 0 0.903797 0 0.906329 0 0.908861 0 
0.911392 0 0.913924 0 0.916456 0 0.918987 0 0.921519 
0 0.924051 0 0.926582 0 0.929114 0 0.931646 0 
0.934177 0 0.936709 0 0.939241 0 0.941772 0 0.944304 
0 0.946835 0 0.949367 0 0.951899 0 0.95443 0 
0.956962 0 0.959494 0 0.962025 0 0.964557 0 0.967089 
0 0.96962 0 0.972152 0 0.974684 0 0.977215 0 
0.979747 0 0.982278 0 0.98481 0 0.987342 0 0.989873 
0 0.992405 0 0.994937 0 0.997468 0 1 0 

FIELD FieldData 1
MaximumInscribedSphereRadius 1 396 double
18.207239651 18.207239651 18.207239651 18.207239651 18.207239651 18.207239651 18.207239651 18.207239651 18.207239651 
18.207239651 18.207239651 18.207239651 18.207239651 18.207239651 18.207239651 18.207239651 18.207239651 18.207239651 
18.207239651 18.207239651 18.207239651 18.207239651 18.207239651 18.207239651 18.207239651 18.207239651 18.207239651 
18.207239651 18.207239651 18.207239651 18.207239651 18.207239651 18.207239651 18.207239651 18.207239651 18.207239651 
18.207239651 18.207239651 18.207239651 18.207239651 18.207239651 18.207239651 18.207239651 18.207239651 18.207239651 
18.207239651 18.207239651 18.207239651 18.207239651 18.207239651 18.207239651 18.207239651 18.207239651 18.207239651 
18.207239651 18.207239651 18.207239651 18.207239651 18.207239651 18.207239651 18.207239651 18.207239651 18.207239651 
18.207239651 18.207239651 18.207239651 18.207239651 18.207239651 18.207239651 18.207239651 18.207239651 18.207239651 
18.207239651 18.207239651 18.207239651 18.207239651 18.207239651 18.207239651 18.207239651 18.207239651 18.207239651 
18.207239651 18.207239651 18.207239651 18.207239651 18.207239651 18.207239651 18.207239651 18.207239651 18.207239651 
18.207239651 18.196000773 18.119227372 18.044440206 17.970705944 17.896971681 17.832674541 17.769978423 17.707282305 
17.644586188 17.58189007 17.519193952 17.456497835 17.393801717 17.334401706 17.27605145 17.217942321 17.158337609 
17.098555765 17.038773921 16.978992078 16.919210234 16.85942839 16.799646547 16.739864703 16.680082859 16.620301016 
16.565306782 16.516390863 16.467474944 16.418559025 16.369643106 16.320727187 16.27530887 16.24516285 16.21501683 
16.18487081 16.15472479 16.12457877 16.09443275 16.06428673 16.03414071 16.00399469 15.973848669 15.943702649 
15.913556629 15.883410609 15.853264589 15.823118569 15.792972549 15.778721376 15.765144719 15.74959516 15.734045602 
15.712409309 15.683779273 15.655868929 15.630950505 15.61048796 15.593334715 15.576181471 15.559028227 15.541874983 
15.524721739 15.507568495 15.49041525 15.473262006 15.456108762 15.438955518 15.421802274 15.40464903 15.395118125 
15.391654985 15.388191844 15.337270951 15.217384378 15.097497804 14.977611231 14.857724657 14.734460303 14.609416361 
14.487911488 14.374739212 14.261566935 14.148058783 14.032825204 13.917591625 13.802358046 13.687124467 13.581712955 
13.477691339 13.373669723 13.269648108 13.165626492 13.061604877 12.957600044 12.853854082 12.750108121 12.65462941 
12.564685782 12.474742154 12.384798526 12.294854898 12.20491127 12.114967642 12.025024014 11.935080386 11.842020389 
11.74047501 11.638929632 11.523955103 11.387676298 11.251397493 11.115118688 10.991770097 10.877123653 10.76247721 
10.647830767 10.533184324 10.418537881 10.303891438 10.188875402 10.071762279 9.9546491568 9.8375360342 9.7284104583 
9.6228603344 9.5173102106 9.4213166228 9.3454785148 9.2696404068 9.1913795364 9.1054588655 9.0286493573 8.9527776667 
8.8769059761 8.8007566771 8.7222400432 8.6462831318 8.5782585019 8.5112213035 8.4441841052 8.3771469069 8.313815273 
8.2523184664 8.1937874805 8.1367550921 8.0803687972 8.024655895 7.9722165998 7.9204739145 7.8695953375 7.8269498099 
7.7834927585 7.7413267114 7.7007623432 7.6605772816 7.6203922201 7.5894692053 7.5627412989 7.5360133925 7.5092854861 
7.479863839 7.4503797075 7.4167513941 7.3781124354 7.3397018651 7.3014019217 7.2631019783 7.2248020349 7.1865020916 
7.1486823869 7.1110886169 7.0734948469 7.0262815647 6.9714508317 6.9166200987 6.8578656285 6.7972693331 6.7366730378 
6.6696968465 6.598847219 6.518630315 6.4167225919 6.3157460355 6.2219159289 6.1280858222 6.0203005823 5.885825823 
5.7547087906 5.625617382 5.5056834899 5.3762969868 5.2782793431 5.185192007 5.0959111343 5.0105487455 4.9158359283 
4.8227186305 4.7337122149 4.6443149794 4.5548782499 4.4654415203 4.3791042315 4.2973657946 4.2255316605 4.1693094871 
4.1130873137 4.0568651403 4.0049894837 3.9558606379 3.9131297692 3.892659218 3.8721886669 3.8453603011 3.8242059584 
3.8145256546 3.8048453507 3.7951650469 3.7854847431 3.7758044393 3.7661241355 3.7564438317 3.7467635279 3.7370832241 
3.7535071723 3.7860974759 3.8176192441 3.8180618831 3.818504522 3.8218383858 3.8285264561 3.8352145264 3.8419025967 
3.848590667 3.8552787373 3.8694031785 3.8728537731 3.868999643 3.8437950343 3.8185904256 3.7933858169 3.7681812082 
3.7429765995 3.7337733669 3.7303220584 3.7268707499 3.7383583087 3.7524151248 3.7664719409 3.780528757 3.7981984639 
3.8165255567 3.8348526495 3.8531797422 3.871506835 3.880414597 3.8876751032 3.8949356095 3.9021961157 3.909456622 
3.9167171283 3.9239776345 3.9312381408 3.9438601223 3.9708754787 3.9984998113 4.0278841664 4.0572685214 4.0866528764 
4.1157584186 4.0990805022 4.0741014836 4.049122465 4.0241434464 3.9991644278 3.9647978335 3.8927974535 3.7584308109 
3.6112131466 3.4565295743 3.3080704473 3.1620995751 3.0290819355 2.9005080268 2.7719341181 2.6433602094 2.5281508111 
2.4312657794 2.3362524621 2.2412391448 2.1462258275 2.0348566124 1.9221346697 1.8181606482 1.725114157 1.6320676658 
1.5390211746 1.4934413163 1.4934413163 1.4934413163 1.4934413163 1.4934413163 1.4934413163 1.4934413163 1.4934413163 

