# vtk DataFile Version 5.1
vtk output
ASCII
DATASET POLYDATA
POINTS 371 float
5.26686 160.646 1013.69 5.26491 160.641 1013.69 5.2591 160.627 1013.68 
5.24948 160.604 1013.67 5.23609 160.572 1013.65 5.21898 160.531 1013.63 
5.19821 160.481 1013.61 5.17382 160.423 1013.58 5.14587 160.357 1013.55 
5.11439 160.283 1013.51 5.07944 160.201 1013.47 5.04107 160.111 1013.43 
4.99933 160.014 1013.38 4.95426 159.91 1013.33 4.90592 159.799 1013.28 
4.85435 159.681 1013.22 4.7996 159.557 1013.16 4.74173 159.426 1013.1 
4.68078 159.289 1013.04 4.6168 159.146 1012.97 4.54983 158.997 1012.9 
4.47994 158.842 1012.83 4.40716 158.682 1012.76 4.33155 158.517 1012.68 
4.25315 158.347 1012.6 4.17202 158.172 1012.53 4.0882 157.992 1012.45 
4.00174 157.808 1012.36 3.91269 157.62 1012.28 3.8211 157.427 1012.2 
3.72702 157.231 1012.11 3.6305 157.031 1012.03 3.53159 156.828 1011.94 
3.43033 156.621 1011.85 3.32677 156.412 1011.77 3.22097 156.199 1011.68 
3.11297 155.984 1011.59 3.00283 155.767 1011.5 2.89058 155.547 1011.41 
2.77629 155.325 1011.32 2.65999 155.101 1011.24 2.54174 154.876 1011.15 
2.42159 154.649 1011.06 2.29958 154.421 1010.98 2.17577 154.192 1010.89 
2.0502 153.962 1010.81 1.92292 153.731 1010.72 1.79398 153.5 1010.64 
1.66344 153.268 1010.56 1.53133 153.036 1010.48 1.39772 152.805 1010.41 
1.26264 152.574 1010.33 1.12614 152.343 1010.26 0.988285 152.113 1010.19 
0.849112 151.884 1010.12 0.708672 151.656 1010.05 0.567014 151.429 1009.98 
0.424188 151.204 1009.92 0.280241 150.981 1009.86 0.135224 150.759 1009.81 
-0.0108142 150.539 1009.75 -0.157826 150.322 1009.7 -0.305761 150.107 1009.65 
-0.454571 149.895 1009.61 -0.604207 149.686 1009.57 -0.754619 149.48 1009.53 
-0.90576 149.277 1009.5 -1.05758 149.077 1009.47 -1.21003 148.882 1009.44 
-1.36306 148.69 1009.42 -1.51662 148.502 1009.41 -1.67067 148.318 1009.39 
-1.82514 148.139 1009.39 -1.98001 147.965 1009.38 -2.13521 147.795 1009.38 
-2.29069 147.631 1009.39 -2.44642 147.471 1009.4 -2.60233 147.317 1009.42 
-2.75839 147.169 1009.44 -2.91453 147.027 1009.47 -3.07072 146.89 1009.5 
-3.2269 146.76 1009.54 -3.38302 146.636 1009.59 -3.53904 146.519 1009.64 
-3.69491 146.409 1009.69 -3.85057 146.306 1009.76 -4.00598 146.21 1009.83 
-4.16109 146.121 1009.9 -4.31585 146.04 1009.98 -4.47022 145.967 1010.07 
-4.62413 145.901 1010.17 -4.77755 145.844 1010.27 -4.93049 145.796 1010.38 
-5.08321 145.754 1010.5 -5.23604 145.72 1010.62 -5.38929 145.692 1010.75 
-5.54327 145.668 1010.87 -5.69831 145.649 1011 -5.85472 145.634 1011.13 
-6.01282 145.622 1011.26 -6.17292 145.612 1011.38 -6.33535 145.603 1011.51 
-6.50041 145.594 1011.62 -6.66844 145.585 1011.74 -6.83973 145.575 1011.84 
-7.01462 145.563 1011.94 -7.19303 145.549 1012.03 -7.37346 145.534 1012.11 
-7.55512 145.517 1012.2 -7.73738 145.5 1012.28 -7.91963 145.483 1012.36 
-8.10124 145.466 1012.45 -8.28156 145.449 1012.54 -8.45999 145.432 1012.62 
-8.63589 145.416 1012.72 -8.80863 145.401 1012.82 -8.97758 145.387 1012.92 
-9.14213 145.375 1013.04 -9.30206 145.365 1013.16 -9.45758 145.358 1013.28 
-9.60892 145.356 1013.41 -9.757 145.351 1013.55 -9.9036 145.327 1013.68 
-10.0461 145.287 1013.82 -10.18 145.248 1013.96 -10.3064 145.215 1014.11 
-10.4293 145.184 1014.27 -10.5523 145.153 1014.42 -10.6785 145.12 1014.57 
-10.8083 145.088 1014.71 -10.9417 145.059 1014.86 -11.0788 145.034 1015 
-11.2198 145.016 1015.14 -11.3647 145.008 1015.29 -11.5127 145.01 1015.44 
-11.6401 144.966 1015.58 -11.7266 144.83 1015.7 -11.812 144.699 1015.82 
-11.8966 144.566 1015.95 -11.9815 144.431 1016.07 -12.0681 144.292 1016.18 
-12.1577 144.148 1016.29 -12.2515 143.999 1016.39 -12.3501 143.849 1016.48 
-12.4545 143.702 1016.57 -12.5652 143.56 1016.66 -12.6831 143.427 1016.76 
-12.809 143.306 1016.85 -12.9434 143.2 1016.96 -13.0823 143.098 1017.06 
-13.2186 142.979 1017.14 -13.3516 142.844 1017.19 -13.4821 142.697 1017.23 
-13.6108 142.543 1017.27 -13.7383 142.387 1017.3 -13.8655 142.234 1017.35 
-13.993 142.088 1017.4 -14.1215 141.948 1017.47 -14.2519 141.816 1017.54 
-14.3849 141.689 1017.62 -14.5212 141.566 1017.7 -14.6612 141.448 1017.78 
-14.8043 141.333 1017.86 -14.95 141.219 1017.94 -15.0976 141.107 1018.01 
-15.2465 140.996 1018.09 -15.3961 140.883 1018.16 -15.5458 140.77 1018.23 
-15.6947 140.653 1018.29 -15.8384 140.526 1018.35 -15.9771 140.388 1018.4 
-16.1182 140.252 1018.44 -16.2698 140.129 1018.48 -16.4325 140.022 1018.53 
-16.5972 139.919 1018.58 -16.7563 139.808 1018.63 -16.909 139.69 1018.68 
-17.0569 139.565 1018.73 -17.2013 139.435 1018.78 -17.3437 139.301 1018.82 
-17.4855 139.167 1018.87 -17.6281 139.032 1018.91 -17.7724 138.899 1018.95 
-17.9153 138.764 1018.99 -18.0527 138.624 1019.03 -18.1883 138.483 1019.07 
-18.3319 138.348 1019.11 -18.4836 138.224 1019.15 -18.6407 138.111 1019.2 
-18.8013 138.007 1019.25 -18.9636 137.907 1019.32 -19.1256 137.806 1019.38 
-19.2856 137.702 1019.44 -19.4416 137.589 1019.5 -19.5948 137.471 1019.55 
-19.7474 137.354 1019.6 -19.9 137.238 1019.66 -20.0527 137.123 1019.72 
-20.2057 137.009 1019.78 -20.3593 136.896 1019.84 -20.5138 136.784 1019.9 
-20.6693 136.672 1019.95 -20.8261 136.561 1020.01 -20.9844 136.451 1020.06 
-21.1445 136.341 1020.12 -21.3067 136.232 1020.16 -21.471 136.123 1020.21 
-21.6375 136.014 1020.24 -21.8044 135.904 1020.28 -21.9696 135.79 1020.31 
-22.1308 135.671 1020.33 -22.2859 135.546 1020.35 -22.4326 135.412 1020.36 
-22.5689 135.267 1020.37 -22.6937 135.111 1020.37 -22.8135 134.95 1020.38 
-22.937 134.793 1020.39 -23.0714 134.646 1020.4 -23.2151 134.508 1020.42 
-23.3632 134.373 1020.44 -23.5117 134.238 1020.46 -23.6574 134.099 1020.48 
-23.7974 133.956 1020.49 -23.9289 133.806 1020.5 -24.0489 133.646 1020.5 
-24.1602 133.48 1020.49 -24.2884 133.327 1020.51 -24.4289 133.185 1020.53 
-24.5742 133.05 1020.55 -24.731 132.931 1020.58 -24.8969 132.826 1020.62 
-25.0687 132.728 1020.66 -25.2433 132.634 1020.7 -25.4176 132.538 1020.73 
-25.5889 132.436 1020.75 -25.7549 132.325 1020.76 -25.9108 132.199 1020.77 
-26.0704 132.082 1020.79 -26.2427 131.985 1020.83 -26.4211 131.897 1020.86 
-26.5989 131.806 1020.87 -26.7712 131.704 1020.88 -26.935 131.59 1020.88 
-27.0918 131.466 1020.88 -27.2444 131.336 1020.88 -27.3958 131.203 1020.88 
-27.5484 131.073 1020.88 -27.7025 130.945 1020.88 -27.8582 130.819 1020.89 
-28.0154 130.695 1020.89 -28.174 130.574 1020.91 -28.3342 130.455 1020.93 
-28.499 130.343 1020.94 -28.6723 130.243 1020.94 -28.8533 130.157 1020.92 
-29.0399 130.084 1020.9 -29.2305 130.025 1020.88 -29.4234 129.977 1020.85 
-29.6167 129.931 1020.83 -29.8079 129.882 1020.79 -29.9943 129.821 1020.75 
-30.1761 129.747 1020.71 -30.357 129.67 1020.68 -30.5361 129.586 1020.64 
-30.713 129.495 1020.6 -30.89 129.406 1020.55 -31.0694 129.33 1020.5 
-31.2536 129.277 1020.45 -31.4439 129.25 1020.4 -31.6313 129.212 1020.35 
-31.8136 129.151 1020.3 -31.9912 129.072 1020.25 -32.1647 128.98 1020.21 
-32.3346 128.877 1020.16 -32.5012 128.768 1020.11 -32.6651 128.657 1020.05 
-32.8268 128.547 1019.98 -32.9868 128.443 1019.91 -33.1455 128.349 1019.83 
-33.3035 128.267 1019.74 -33.464 128.196 1019.64 -33.6337 128.124 1019.56 
-33.8069 128.058 1019.49 -33.9763 128.007 1019.4 -34.1435 127.968 1019.29 
-34.3126 127.934 1019.19 -34.4837 127.904 1019.08 -34.6546 127.879 1018.98 
-34.8233 127.86 1018.87 -34.9876 127.85 1018.75 -35.1454 127.851 1018.63 
-35.2946 127.862 1018.5 -35.4355 127.882 1018.36 -35.5787 127.883 1018.22 
-35.7284 127.857 1018.09 -35.8805 127.814 1017.97 -36.0309 127.766 1017.84 
-36.1751 127.724 1017.71 -36.3096 127.697 1017.56 -36.4362 127.662 1017.41 
-36.5591 127.619 1017.26 -36.6827 127.581 1017.1 -36.811 127.56 1016.95 
-36.9468 127.542 1016.81 -37.0885 127.51 1016.67 -37.2329 127.478 1016.53 
-37.377 127.458 1016.39 -37.5211 127.463 1016.26 -37.6657 127.485 1016.12 
-37.798 127.503 1015.97 -37.9341 127.513 1015.82 -38.0773 127.536 1015.69 
-38.2179 127.573 1015.55 -38.3461 127.61 1015.4 -38.4587 127.636 1015.23 
-38.5693 127.647 1015.07 -38.6909 127.635 1014.91 -38.8111 127.635 1014.75 
-38.9328 127.651 1014.59 -39.055 127.682 1014.43 -39.177 127.725 1014.28 
-39.2987 127.776 1014.13 -39.4206 127.829 1013.98 -39.5472 127.869 1013.83 
-39.6592 127.898 1013.67 -39.7752 127.958 1013.52 -39.8965 127.996 1013.36 
-40.0211 128.012 1013.21 -40.1487 128.016 1013.05 -40.2788 128.018 1012.89 
-40.4134 128.023 1012.75 -40.5446 128.025 1012.6 -40.6652 128.052 1012.44 
-40.7849 128.088 1012.28 -40.9138 128.111 1012.13 -41.0498 128.115 1011.98 
-41.1883 128.123 1011.84 -41.3504 128.144 1011.73 -41.5285 128.173 1011.64 
-41.7121 128.206 1011.55 -41.8896 128.226 1011.47 -42.0548 128.189 1011.36 
-42.2207 128.149 1011.25 -42.3928 128.128 1011.14 -42.5706 128.122 1011.05 
-42.7533 128.125 1010.96 -42.9404 128.133 1010.88 -43.1313 128.141 1010.82 
-43.3252 128.143 1010.76 -43.5217 128.135 1010.72 -43.7063 128.112 1010.65 
-43.8961 128.085 1010.59 -44.0866 128.061 1010.53 -44.2745 128.043 1010.47 
-44.4594 128.028 1010.39 -44.6445 128.013 1010.31 -44.8335 127.994 1010.25 
-45.0271 127.966 1010.21 -45.2234 127.932 1010.18 -45.417 127.908 1010.14 
-45.6126 127.893 1010.1 -45.8212 127.871 1010.13 -46.0391 127.841 1010.21 
-46.259 127.805 1010.33 -46.4736 127.766 1010.49 -46.6754 127.726 1010.65 
-46.857 127.688 1010.82 -47.0111 127.654 1010.98 -47.1304 127.626 1011.11 
-47.2073 127.608 1011.2 -47.2346 127.601 1011.23 
LINES 2 371
OFFSETS vtktypeint64
0 371 
CONNECTIVITY vtktypeint64
0 1 2 3 4 5 6 7 8 
9 10 11 12 13 14 15 16 17 
18 19 20 21 22 23 24 25 26 
27 28 29 30 31 32 33 34 35 
36 37 38 39 40 41 42 43 44 
45 46 47 48 49 50 51 52 53 
54 55 56 57 58 59 60 61 62 
63 64 65 66 67 68 69 70 71 
72 73 74 75 76 77 78 79 80 
81 82 83 84 85 86 87 88 89 
90 91 92 93 94 95 96 97 98 
99 100 101 102 103 104 105 106 107 
108 109 110 111 112 113 114 115 116 
117 118 119 120 121 122 123 124 125 
126 127 128 129 130 131 132 133 134 
135 136 137 138 139 140 141 142 143 
144 145 146 147 148 149 150 151 152 
153 154 155 156 157 158 159 160 161 
162 163 164 165 166 167 168 169 170 
171 172 173 174 175 176 177 178 179 
180 181 182 183 184 185 186 187 188 
189 190 191 192 193 194 195 196 197 
198 199 200 201 202 203 204 205 206 
207 208 209 210 211 212 213 214 215 
216 217 218 219 220 221 222 223 224 
225 226 227 228 229 230 231 232 233 
234 235 236 237 238 239 240 241 242 
243 244 245 246 247 248 249 250 251 
252 253 254 255 256 257 258 259 260 
261 262 263 264 265 266 267 268 269 
270 271 272 273 274 275 276 277 278 
279 280 281 282 283 284 285 286 287 
288 289 290 291 292 293 294 295 296 
297 298 299 300 301 302 303 304 305 
306 307 308 309 310 311 312 313 314 
315 316 317 318 319 320 321 322 323 
324 325 326 327 328 329 330 331 332 
333 334 335 336 337 338 339 340 341 
342 343 344 345 346 347 348 349 350 
351 352 353 354 355 356 357 358 359 
360 361 362 363 364 365 366 367 368 
369 370 
POINT_DATA 371
TEXTURE_COORDINATES TCoords 2 float
0 0 0.0027027 0 0.00540541 0 0.00810811 0 0.0108108 
0 0.0135135 0 0.0162162 0 0.0189189 0 0.0216216 0 
0.0243243 0 0.027027 0 0.0297297 0 0.0324324 0 0.0351351 
0 0.0378378 0 0.0405405 0 0.0432432 0 0.0459459 0 
0.0486486 0 0.0513513 0 0.0540541 0 0.0567568 0 0.0594595 
0 0.0621622 0 0.0648649 0 0.0675676 0 0.0702703 0 
0.072973 0 0.0756757 0 0.0783784 0 0.0810811 0 0.0837838 
0 0.0864865 0 0.0891892 0 0.0918919 0 0.0945946 0 
0.0972973 0 0.1 0 0.102703 0 0.105405 0 0.108108 
0 0.110811 0 0.113514 0 0.116216 0 0.118919 0 
0.121622 0 0.124324 0 0.127027 0 0.12973 0 0.132432 
0 0.135135 0 0.137838 0 0.140541 0 0.143243 0 
0.145946 0 0.148649 0 0.151351 0 0.154054 0 0.156757 
0 0.159459 0 0.162162 0 0.164865 0 0.167568 0 
0.17027 0 0.172973 0 0.175676 0 0.178378 0 0.181081 
0 0.183784 0 0.186486 0 0.189189 0 0.191892 0 
0.194595 0 0.197297 0 0.2 0 0.202703 0 0.205405 
0 0.208108 0 0.210811 0 0.213514 0 0.216216 0 
0.218919 0 0.221622 0 0.224324 0 0.227027 0 0.22973 
0 0.232432 0 0.235135 0 0.237838 0 0.240541 0 
0.243243 0 0.245946 0 0.248649 0 0.251351 0 0.254054 
0 0.256757 0 0.259459 0 0.262162 0 0.264865 0 
0.267568 0 0.27027 0 0.272973 0 0.275676 0 0.278378 
0 0.281081 0 0.283784 0 0.286486 0 0.289189 0 
0.291892 0 0.294595 0 0.297297 0 0.3 0 0.302703 
0 0.305405 0 0.308108 0 0.310811 0 0.313514 0 
0.316216 0 0.318919 0 0.321622 0 0.324324 0 0.327027 
0 0.32973 0 0.332432 0 0.335135 0 0.337838 0 
0.340541 0 0.343243 0 0.345946 0 0.348649 0 0.351351 
0 0.354054 0 0.356757 0 0.359459 0 0.362162 0 
0.364865 0 0.367568 0 0.37027 0 0.372973 0 0.375676 
0 0.378378 0 0.381081 0 0.383784 0 0.386487 0 
0.389189 0 0.391892 0 0.394595 0 0.397297 0 0.4 
0 0.402703 0 0.405405 0 0.408108 0 0.410811 0 
0.413514 0 0.416216 0 0.418919 0 0.421622 0 0.424324 
0 0.427027 0 0.42973 0 0.432432 0 0.435135 0 
0.437838 0 0.440541 0 0.443243 0 0.445946 0 0.448649 
0 0.451351 0 0.454054 0 0.456757 0 0.459459 0 
0.462162 0 0.464865 0 0.467568 0 0.47027 0 0.472973 
0 0.475676 0 0.478378 0 0.481081 0 0.483784 0 
0.486486 0 0.489189 0 0.491892 0 0.494595 0 0.497297 
0 0.5 0 0.502703 0 0.505405 0 0.508108 0 
0.510811 0 0.513514 0 0.516216 0 0.518919 0 0.521622 
0 0.524324 0 0.527027 0 0.52973 0 0.532432 0 
0.535135 0 0.537838 0 0.540541 0 0.543243 0 0.545946 
0 0.548649 0 0.551351 0 0.554054 0 0.556757 0 
0.559459 0 0.562162 0 0.564865 0 0.567568 0 0.57027 
0 0.572973 0 0.575676 0 0.578378 0 0.581081 0 
0.583784 0 0.586486 0 0.589189 0 0.591892 0 0.594595 
0 0.597297 0 0.6 0 0.602703 0 0.605405 0 
0.608108 0 0.610811 0 0.613514 0 0.616216 0 0.618919 
0 0.621622 0 0.624324 0 0.627027 0 0.62973 0 
0.632432 0 0.635135 0 0.637838 0 0.640541 0 0.643243 
0 0.645946 0 0.648649 0 0.651351 0 0.654054 0 
0.656757 0 0.659459 0 0.662162 0 0.664865 0 0.667568 
0 0.67027 0 0.672973 0 0.675676 0 0.678378 0 
0.681081 0 0.683784 0 0.686486 0 0.689189 0 0.691892 
0 0.694595 0 0.697297 0 0.7 0 0.702703 0 
0.705405 0 0.708108 0 0.710811 0 0.713513 0 0.716216 
0 0.718919 0 0.721622 0 0.724324 0 0.727027 0 
0.72973 0 0.732432 0 0.735135 0 0.737838 0 0.740541 
0 0.743243 0 0.745946 0 0.748649 0 0.751351 0 
0.754054 0 0.756757 0 0.759459 0 0.762162 0 0.764865 
0 0.767568 0 0.77027 0 0.772973 0 0.775676 0 
0.778378 0 0.781081 0 0.783784 0 0.786487 0 0.789189 
0 0.791892 0 0.794595 0 0.797297 0 0.8 0 
0.802703 0 0.805405 0 0.808108 0 0.810811 0 0.813514 
0 0.816216 0 0.818919 0 0.821622 0 0.824324 0 
0.827027 0 0.82973 0 0.832432 0 0.835135 0 0.837838 
0 0.840541 0 0.843243 0 0.845946 0 0.848649 0 
0.851351 0 0.854054 0 0.856757 0 0.859459 0 0.862162 
0 0.864865 0 0.867568 0 0.87027 0 0.872973 0 
0.875676 0 0.878378 0 0.881081 0 0.883784 0 0.886486 
0 0.889189 0 0.891892 0 0.894595 0 0.897297 0 
0.9 0 0.902703 0 0.905405 0 0.908108 0 0.910811 
0 0.913514 0 0.916216 0 0.918919 0 0.921622 0 
0.924324 0 0.927027 0 0.92973 0 0.932432 0 0.935135 
0 0.937838 0 0.940541 0 0.943243 0 0.945946 0 
0.948649 0 0.951351 0 0.954054 0 0.956757 0 0.959459 
0 0.962162 0 0.964865 0 0.967568 0 0.97027 0 
0.972973 0 0.975676 0 0.978378 0 0.981081 0 0.983784 
0 0.986486 0 0.989189 0 0.991892 0 0.994595 0 
0.997297 0 1 0 
FIELD FieldData 1
MaximumInscribedSphereRadius 1 371 double
18.207239651 18.207239651 18.207239651 18.207239651 18.207239651 18.207239651 18.207239651 18.207239651 18.207239651 
18.207239651 18.207239651 18.207239651 18.207239651 18.207239651 18.207239651 18.207239651 18.207239651 18.207239651 
18.207239651 18.207239651 18.207239651 18.207239651 18.207239651 18.207239651 18.207239651 18.207239651 18.207239651 
18.207239651 18.207239651 18.207239651 18.207239651 18.207239651 18.207239651 18.207239651 18.207239651 18.207239651 
18.207239651 18.207239651 18.207239651 18.207239651 18.207239651 18.207239651 18.207239651 18.207239651 18.207239651 
18.207239651 18.207239651 18.207239651 18.207239651 18.207239651 18.207239651 18.207239651 18.207239651 18.207239651 
18.207239651 18.207239651 18.207239651 18.207239651 18.207239651 18.207239651 18.207239651 18.207239651 18.207239651 
18.207239651 18.207239651 18.207239651 18.207239651 18.207239651 18.207239651 18.207239651 18.207239651 18.207239651 
18.207239651 18.207239651 18.207239651 18.207239651 18.207239651 18.207239651 18.207239651 18.207239651 18.207239651 
18.207239651 18.207239651 18.207239651 18.207239651 18.207239651 18.207239651 18.207239651 18.207239651 18.207239651 
18.207239651 18.207509641 18.214576935 18.221644228 18.228711521 18.235778814 18.242846108 18.249913401 18.256980694 
18.264047988 18.271115281 18.278182574 18.285249867 18.292317161 18.299384454 18.306451747 18.323844935 18.349320523 
18.374796111 18.400271698 18.425747286 18.451222874 18.476698461 18.502174049 18.527649637 18.553125225 18.578600812 
18.608487888 18.64355615 18.678624412 18.713377032 18.747021208 18.76464891 18.776468361 18.787866307 18.799145495 
18.810424683 18.821737661 18.833252969 18.844768277 18.856283585 18.867798893 18.879314201 18.890829509 18.904915704 
18.914476149 18.815677237 18.718886487 18.622145155 18.525403824 18.428662492 18.33457111 18.244699292 18.154827474 
18.064955656 17.975083837 17.885212019 17.795340201 17.689173998 17.563389113 17.397432917 17.231476721 17.065520526 
16.89956433 16.733608134 16.567651939 16.401973097 16.236321711 16.070670325 15.905018938 15.743091139 15.59187582 
15.4406605 15.28944518 15.13822986 14.98701454 14.83579922 14.6845839 14.530620105 14.370932848 14.204876911 
14.038820973 13.878293938 13.726457566 13.574621195 13.417314298 13.25994479 13.102575282 12.945205774 12.787836266 
12.630466758 12.47309725 12.314497053 12.155659208 11.994855938 11.831788623 11.667537423 11.505972301 11.349183223 
11.192394145 11.035605067 10.878815989 10.722026911 10.565318092 10.415397352 10.270993099 10.126588845 9.9821845916 
9.837780338 9.6933760845 9.5489718309 9.4045675773 9.2601633237 9.1157590701 8.9713548166 8.826950563 8.6825463094 
8.5399888312 8.3975283008 8.2550677704 8.1126072401 7.9701467097 7.8276861793 7.6852256489 7.552209007 7.4203941501 
7.2885792931 7.1632823663 7.0387508775 6.9179013558 6.8060717058 6.6942420558 6.5824124057 6.4705827557 6.3587531057 
6.2590654491 6.1615037957 6.0649770588 5.9762014655 5.8861768715 5.7961522775 5.7061276834 5.6161030894 5.5260784954 
5.4404423567 5.3586709849 5.2832186956 5.2124058891 5.142638086 5.0728702829 5.0057306625 4.9389428647 4.8939630883 
4.8496161392 4.8052691901 4.7610695402 4.7513973819 4.7417252236 4.7320530653 4.722380907 4.7127087487 4.7119773558 
4.7170756872 4.7021466753 4.6872176634 4.6722886514 4.656054377 4.6409036329 4.6289666516 4.6170296703 4.6076997478 
4.6034730334 4.6083530836 4.6232697774 4.6438837245 4.6644976716 4.6851116188 4.7057255659 4.7316186764 4.776443262 
4.8212678476 4.8660924332 4.9109170189 4.9557416045 5.0005661901 5.0453907757 5.0902153613 5.1350399469 5.1798645325 
5.2270496868 5.2834399362 5.3368433953 5.3902123777 5.4173797117 5.4416397489 5.4730093987 5.5072013499 5.541393301 
5.5755852522 5.6097772034 5.6439691545 5.6781611057 5.6824550325 5.6710451413 5.6469807197 5.622916298 5.5988518764 
5.5747874547 5.5475104928 5.5213021439 5.4951528563 5.4690035687 5.4455437329 5.4256788353 5.404571431 5.3834640268 
5.3463772321 5.2934875587 5.2394667282 5.181112351 5.1249267291 5.0735874479 5.0222481667 4.9703064468 4.9051348514 
4.8389633109 4.7733691878 4.7173238196 4.6615664978 4.605809176 4.5603958233 4.5204636206 4.4805314178 4.4446918104 
4.4022273343 4.3680160085 4.3285819446 4.2891478807 4.2497138168 4.2102797529 4.1800700089 4.1460488445 4.1092833992 
4.072517954 4.0357525087 3.9948595691 3.9431707769 3.8634688949 3.7837670129 3.704065131 3.6270413875 3.5381241218 
3.4591182899 3.3842490531 3.3093798163 3.2345105795 3.1596413427 3.0847721059 3.0099028691 2.9349282287 2.8375449134 
2.7346235689 2.6393417845 2.5459034758 2.4567218183 2.3794559662 2.3029609509 2.2276247483 2.1544979487 2.0785614293 
1.9854847647 1.9708505242 1.9708505242 1.9708505242 1.9708505242 1.9708505242 1.9708505242 1.9708505242 1.9708505242 
1.9708505242 1.9708505242 
